LAMMPS (2 Aug 2023 - Update 3)
  using 1 OpenMP thread(s) per MPI task
# =========================================================
# NVT production — LONG run (500 000 steps / 250 ps)
# System: caffeine + SPC/E water
# Starting point: NPT-equilibrated structure (npt_eq_final.data)
#
# This script replaces in.nvt_prod_long and adds:
#   - MSD for water oxygens  (-> msd_waterO.dat)
#   - MSD for caffeine       (-> msd_caffeine.dat)
#   - Averaged thermo output (-> thermo_avg_prod_long.dat)
#
# Required for: items 1.1.1, 1.1.3, Fig. 6 (RBEF revision)
# =========================================================

# ---------------------------------------------------------
# 1. Common parameters (pair styles, kspace, bonds, etc.)
# ---------------------------------------------------------
include         in.common
units real
atom_style full
boundary p p p

pair_style      lj/cut/coul/long 10.0 10.0
pair_modify     mix geometric tail no
bond_style      harmonic
angle_style     harmonic
dihedral_style  opls
improper_style  cvff
kspace_style    pppm 1.0e-4
special_bonds   lj/coul 0.0 0.0 0.5
neighbor        2.0 bin
neigh_modify    every 1 delay 0 check yes

# ---------------------------------------------------------
# 2. Load NPT-equilibrated structure
# ---------------------------------------------------------
read_data       npt_eq_final.data
Reading data file ...
  orthogonal box = (0.46844179 0.49244279 0.44294179) to (29.530558 29.554559 29.505058)
  2 by 2 by 2 MPI processor grid
  reading atoms ...
  2424 atoms
  reading velocities ...
  2424 velocities
  scanning bonds ...
  2 = max bonds/atom
  scanning angles ...
  6 = max angles/atom
  scanning dihedrals ...
  7 = max dihedrals/atom
  scanning impropers ...
  4 = max impropers/atom
  reading bonds ...
  1625 bonds
  reading angles ...
  843 angles
  reading dihedrals ...
  54 dihedrals
  reading impropers ...
  14 impropers
Finding 1-2 1-3 1-4 neighbors ...
  special bond factors lj:    0        0        0.5     
  special bond factors coul:  0        0        0.5     
     4 = max # of 1-2 neighbors
     7 = max # of 1-3 neighbors
    16 = max # of 1-4 neighbors
    16 = max # of special neighbors
  special bonds CPU = 0.000 seconds
  read_data CPU = 0.020 seconds

# ---------------------------------------------------------
# 3. Atom groups
# ---------------------------------------------------------
group           caffeine  molecule 1
24 atoms in group caffeine
group           water     type 25 26
2400 atoms in group water
group           waterO    type 25
800 atoms in group waterO
group           waterH    type 26
1600 atoms in group waterH
group           caffO     type 13 14
2 atoms in group caffO
group           caffN     type 2 4 8 11
4 atoms in group caffN

# ---------------------------------------------------------
# 4. SHAKE constraints (SPC/E rigid geometry)
#    bond type 26 = O-H | angle type 44 = H-O-H
# ---------------------------------------------------------
fix             fxShake water shake 1.0e-4 200 0 b 26 a 44
Finding SHAKE clusters ...
       0 = # of size 2 clusters
       0 = # of size 3 clusters
       0 = # of size 4 clusters
     800 = # of frozen angles
  find clusters CPU = 0.000 seconds

# ---------------------------------------------------------
# 5. Time step and reset
# ---------------------------------------------------------
reset_timestep  0
timestep        0.5

# ---------------------------------------------------------
# 6. Thermostat — Nose-Hoover NVT (Tdamp = 200 fs)
# ---------------------------------------------------------
fix             fxNVT all nvt temp 298.0 298.0 200.0

# ---------------------------------------------------------
# 7. Thermodynamic output (every 100 steps = 0.05 ps)
# ---------------------------------------------------------
thermo          100
thermo_style    custom step temp pe ke etotal press density vol
thermo_modify   flush yes

# ---------------------------------------------------------
# 8. Trajectory dump (every 1000 steps = 0.5 ps)
# ---------------------------------------------------------
dump            d1 all custom 1000 nvt_prod_long.lammpstrj                 id mol type q x y z vx vy vz
dump_modify     d1 sort id

# ---------------------------------------------------------
# 9. Restart files (every 50 000 steps)
# ---------------------------------------------------------
restart         50000 nvt_prod_long.restart1 nvt_prod_long.restart2

# ---------------------------------------------------------
# 10. MSD — water oxygens
#     com yes = removes center-of-mass drift before computing MSD
#     Output: step  MSD_waterO (A^2)
#     Averaged over windows of 1000 steps (every 100 steps, 10 samples)
# ---------------------------------------------------------
compute         cMSDwatO waterO msd com yes
fix             fxMSDwatO waterO ave/time 100 10 1000                 c_cMSDwatO[4] file msd_waterO.dat title1 "# Step MSD_waterO(A^2)"

# ---------------------------------------------------------
# 11. MSD — caffeine (center of mass)
# ---------------------------------------------------------
compute         cMSDcaf caffeine msd com yes
fix             fxMSDcaf caffeine ave/time 100 10 1000                 c_cMSDcaf[4] file msd_caffeine.dat title1 "# Step MSD_caffeine(A^2)"

# ---------------------------------------------------------
# 12. Averaged thermodynamic variables
#     Smoothed over windows of 1000 steps for comparison tables
# ---------------------------------------------------------
variable        vTemp   equal temp
variable        vPress  equal press
variable        vDens   equal density
variable        vVol    equal vol
variable        vPE     equal pe
variable        vKE     equal ke
variable        vEtot   equal etotal

fix             fxAvg all ave/time 100 10 1000                 v_vTemp v_vPress v_vDens v_vPE v_vKE v_vEtot v_vVol                 file thermo_avg_prod_long.dat mode scalar

# ---------------------------------------------------------
# 13. Run: 500 000 steps = 250 ps
# ---------------------------------------------------------
run             1000000
PPPM initialization ...
WARNING: System is not charge neutral, net charge = -0.0002 (src/src/kspace.cpp:327)
  using 12-bit tables for long-range coulomb (src/src/kspace.cpp:342)
  G vector (1/distance) = 0.26366352
  grid = 15 15 15
  stencil order = 5
  estimated absolute RMS force accuracy = 0.031845615
  estimated relative force accuracy = 9.5902122e-05
  using double precision FFTW3
  3d grid and FFT values/proc = 2744 512
Generated 325 of 325 mixed pair_coeff terms from geometric mixing rule
Neighbor list info ...
  update: every = 1 steps, delay = 0 steps, check = yes
  max neighbors/atom: 2000, page size: 100000
  master list distance cutoff = 12
  ghost atom cutoff = 12
  binsize = 6, bins = 5 5 5
  1 neighbor lists, perpetual/occasional/extra = 1 0 0
  (1) pair lj/cut/coul/long, perpetual
      attributes: half, newton on
      pair build: half/bin/newton
      stencil: half/bin/3d
      bin: standard
Per MPI rank memory allocation (min/avg/max) = 15.07 | 15.12 | 15.46 Mbytes
   Step          Temp          PotEng         KinEng         TotEng         Press         Density         Volume    
         0   290.48548     -8942.1733      1405.3266     -7536.8468      31.758562      0.98812314     24546.056    
       100   291.45017     -8947.3936      1409.9936     -7537.4         346.14229      0.98812314     24546.056    
       200   294.58877     -8960.3398      1425.1777     -7535.1622     -414.45726      0.98812314     24546.056    
       300   304.70467     -9004.8502      1474.1169     -7530.7333      437.85697      0.98812314     24546.056    
       400   299.68193     -8976.6788      1449.8176     -7526.8612      589.04102      0.98812314     24546.056    
       500   303.79663     -8993.7399      1469.724      -7524.016       272.11487      0.98812314     24546.056    
       600   297.14077     -8959.6301      1437.5239     -7522.1062      280.14705      0.98812314     24546.056    
       700   297.09511     -8956.4665      1437.303      -7519.1635     -105.32991      0.98812314     24546.056    
       800   296.93137     -8949.0406      1436.5108     -7512.5297      366.15132      0.98812314     24546.056    
       900   297.62802     -8943.8822      1439.8811     -7504.001       370.49779      0.98812314     24546.056    
      1000   291.10018     -8902.3632      1408.3004     -7494.0628      313.87945      0.98812314     24546.056    
      1100   294.48365     -8904.6808      1424.6691     -7480.0117     -347.12861      0.98812314     24546.056    
      1200   300.92279     -8918.2486      1455.8207     -7462.4279     -827.56566      0.98812314     24546.056    
      1300   297.84099     -8885.2241      1440.9114     -7444.3127     -557.22367      0.98812314     24546.056    
      1400   298.20997     -8872.223       1442.6965     -7429.5264     -856.55129      0.98812314     24546.056    
      1500   300.7111      -8873.9737      1454.7966     -7419.177      -211.86273      0.98812314     24546.056    
      1600   312.24338     -8925.0489      1510.5881     -7414.4608     -70.382218      0.98812314     24546.056    
      1700   308.19631     -8907.0493      1491.0089     -7416.0403     -64.080351      0.98812314     24546.056    
      1800   307.81198     -8912.1362      1489.1496     -7422.9866     -390.81848      0.98812314     24546.056    
      1900   299.02125     -8881.7263      1446.6214     -7435.1049      335.71437      0.98812314     24546.056    
      2000   300.53062     -8902.9083      1453.9235     -7448.9848     -271.81864      0.98812314     24546.056    
      2100   302.76763     -8927.7175      1464.7458     -7462.9717      606.2093       0.98812314     24546.056    
      2200   298.82853     -8924.9706      1445.689      -7479.2816      1063.2634      0.98812314     24546.056    
      2300   306.16162     -8975.4737      1481.1654     -7494.3083     -43.576133      0.98812314     24546.056    
      2400   299.0031      -8951.5884      1446.5336     -7505.0549     -313.32936      0.98812314     24546.056    
      2500   301.34923     -8970.2246      1457.8838     -7512.3408     -493.18315      0.98812314     24546.056    
      2600   303.09195     -8983.5695      1466.3148     -7517.2547     -268.37141      0.98812314     24546.056    
      2700   298.27048     -8964.1768      1442.9893     -7521.1875      214.05363      0.98812314     24546.056    
      2800   297.25733     -8963.7532      1438.0878     -7525.6654     -156.28985      0.98812314     24546.056    
      2900   296.89815     -8964.2179      1436.3501     -7527.8678      91.82403       0.98812314     24546.056    
      3000   296.52371     -8963.628       1434.5386     -7529.0894      393.53573      0.98812314     24546.056    
      3100   301.01826     -8988.4838      1456.2826     -7532.2011      130.97376      0.98812314     24546.056    
      3200   301.80455     -8996.6231      1460.0866     -7536.5365      264.58167      0.98812314     24546.056    
      3300   296.74812     -8980.1403      1435.6243     -7544.5161     -24.969874      0.98812314     24546.056    
      3400   290.58178     -8961.3395      1405.7924     -7555.547      -172.71628      0.98812314     24546.056    
      3500   292.15759     -8980.3085      1413.416      -7566.8925     -208.1428       0.98812314     24546.056    
      3600   292.14753     -8991.4507      1413.3673     -7578.0834      128.87394      0.98812314     24546.056    
      3700   292.82217     -9004.5834      1416.6311     -7587.9523      505.50127      0.98812314     24546.056    
      3800   296.73254     -9034.9098      1435.5489     -7599.3609      742.16234      0.98812314     24546.056    
      3900   292.54057     -9027.8278      1415.2688     -7612.559       298.67973      0.98812314     24546.056    
      4000   296.06319     -9061.9268      1432.3107     -7629.6161      284.89939      0.98812314     24546.056    
      4100   290.84451     -9057.0452      1407.0635     -7649.9817      117.19209      0.98812314     24546.056    
      4200   286.18313     -9054.8069      1384.5124     -7670.2945      365.83513      0.98812314     24546.056    
      4300   278.12417     -9028.4237      1345.5243     -7682.8994      681.97047      0.98812314     24546.056    
      4400   291.13723     -9094.9483      1408.4796     -7686.4687     -115.82251      0.98812314     24546.056    
      4500   285.77219     -9065.528       1382.5244     -7683.0037      91.727283      0.98812314     24546.056    
      4600   278.7002      -9021.9937      1348.3111     -7673.6826      51.84455       0.98812314     24546.056    
      4700   287.76353     -9049.8308      1392.1582     -7657.6727     -757.8184       0.98812314     24546.056    
      4800   292.17363     -9053.0073      1413.4936     -7639.5138     -297.8326       0.98812314     24546.056    
      4900   287.07207     -9013.9183      1388.813      -7625.1054      661.21104      0.98812314     24546.056    
      5000   298.30732     -9057.9311      1443.1675     -7614.7636     -217.57439      0.98812314     24546.056    
      5100   293.76066     -9027.0399      1421.1714     -7605.8685     -390.3375       0.98812314     24546.056    
      5200   284.17036     -8973.6639      1374.7749     -7598.889      -308.42773      0.98812314     24546.056    
      5300   295.6707      -9020.5647      1430.4119     -7590.1528     -574.38982      0.98812314     24546.056    
      5400   296.66602     -9015.2713      1435.2271     -7580.0442     -419.9224       0.98812314     24546.056    
      5500   293.26606     -8986.7668      1418.7786     -7567.9882     -77.216229      0.98812314     24546.056    
      5600   294.66476     -8981.9131      1425.5453     -7556.3678      47.945603      0.98812314     24546.056    
      5700   297.09958     -8981.0453      1437.3246     -7543.7207     -404.76941      0.98812314     24546.056    
      5800   303.9931      -9002.7         1470.6744     -7532.0255      269.91654      0.98812314     24546.056    
      5900   296.05259     -8954.9936      1432.2594     -7522.7342      291.90973      0.98812314     24546.056    
      6000   297.51311     -8951.9917      1439.3252     -7512.6665      508.85097      0.98812314     24546.056    
      6100   306.63592     -8987.2928      1483.46       -7503.8328      100.66541      0.98812314     24546.056    
      6200   299.66928     -8948.1712      1449.7564     -7498.4148     -317.12268      0.98812314     24546.056    
      6300   296.572       -8928.9679      1434.7722     -7494.1957     -393.72544      0.98812314     24546.056    
      6400   301.64756     -8949.9607      1459.3271     -7490.6336     -402.16368      0.98812314     24546.056    
      6500   303.01446     -8953.8418      1465.9399     -7487.9019     -565.01592      0.98812314     24546.056    
      6600   301.36362     -8943.829       1457.9534     -7485.8756     -561.16163      0.98812314     24546.056    
      6700   304.58372     -8959.1823      1473.5318     -7485.6506     -586.81654      0.98812314     24546.056    
      6800   300.68261     -8944.4648      1454.6588     -7489.806       639.15841      0.98812314     24546.056    
      6900   307.1944      -8987.9015      1486.1619     -7501.7396      44.9318        0.98812314     24546.056    
      7000   300.27076     -8976.0494      1452.6663     -7523.3831     -479.60191      0.98812314     24546.056    
      7100   301.3352      -9007.8565      1457.8159     -7550.0406     -366.58553      0.98812314     24546.056    
      7200   295.48828     -8999.8955      1429.5293     -7570.3662     -141.56046      0.98812314     24546.056    
      7300   283.86272     -8953.9616      1373.2866     -7580.675      -452.75952      0.98812314     24546.056    
      7400   284.47399     -8958.1464      1376.2438     -7581.9026     -340.49264      0.98812314     24546.056    
      7500   292.30864     -8991.4063      1414.1467     -7577.2596      265.87289      0.98812314     24546.056    
      7600   294.49587     -8994.455       1424.7282     -7569.7268      142.63569      0.98812314     24546.056    
      7700   300.83467     -9015.4657      1455.3944     -7560.0713      51.022693      0.98812314     24546.056    
      7800   300.43883     -9004.2955      1453.4794     -7550.8161      200.77684      0.98812314     24546.056    
      7900   297.20696     -8979.8206      1437.8441     -7541.9765      106.53932      0.98812314     24546.056    
      8000   299.29969     -8982.4425      1447.9684     -7534.4741     -396.26839      0.98812314     24546.056    
      8100   298.16007     -8970.4822      1442.4551     -7528.0271     -466.50099      0.98812314     24546.056    
      8200   299.04438     -8967.3115      1446.7333     -7520.5783      290.96575      0.98812314     24546.056    
      8300   307.21948     -8998.2663      1486.2832     -7511.9831      15.361768      0.98812314     24546.056    
      8400   303.5391      -8969.9116      1468.4781     -7501.4335      171.93283      0.98812314     24546.056    
      8500   304.62307     -8964.6141      1473.7222     -7490.8919      665.67238      0.98812314     24546.056    
      8600   299.23542     -8926.4809      1447.6575     -7478.8234      295.29529      0.98812314     24546.056    
      8700   304.91464     -8938.9619      1475.1327     -7463.8292      440.36057      0.98812314     24546.056    
      8800   299.79845     -8895.6389      1450.3813     -7445.2576      777.52238      0.98812314     24546.056    
      8900   308.33773     -8917.5219      1491.6931     -7425.8287      771.396        0.98812314     24546.056    
      9000   313.1559      -8925.9656      1515.0028     -7410.9629      774.5949       0.98812314     24546.056    
      9100   312.00967     -8913.5883      1509.4575     -7404.1308      206.92573      0.98812314     24546.056    
      9200   306.6485      -8888.5421      1483.5209     -7405.0212      352.14011      0.98812314     24546.056    
      9300   309.8918      -8914.3037      1499.2115     -7415.0922      109.97396      0.98812314     24546.056    
      9400   306.11773     -8916.9082      1480.9531     -7435.9551     -539.27007      0.98812314     24546.056    
      9500   300.95229     -8919.9326      1455.9635     -7463.9691     -41.906493      0.98812314     24546.056    
      9600   302.85245     -8952.2073      1465.1562     -7487.0511      519.92921      0.98812314     24546.056    
      9700   307.48312     -8990.3995      1487.5586     -7502.8409      582.88918      0.98812314     24546.056    
      9800   302.70553     -8980.4279      1464.4454     -7515.9825      294.2586       0.98812314     24546.056    
      9900   291.90645     -8937.0445      1412.201      -7524.8435      203.55005      0.98812314     24546.056    
     10000   292.50021     -8944.3103      1415.0735     -7529.2368      396.62786      0.98812314     24546.056    
     10100   296.81336     -8969.2242      1435.9399     -7533.2843      424.02617      0.98812314     24546.056    
     10200   291.23198     -8944.4722      1408.938      -7535.5342      110.04162      0.98812314     24546.056    
     10300   302.90471     -8999.6877      1465.409      -7534.2788      358.53126      0.98812314     24546.056    
     10400   297.20613     -8969.1203      1437.8401     -7531.2802      825.68432      0.98812314     24546.056    
     10500   302.32516     -8990.8305      1462.6052     -7528.2253     -357.39398      0.98812314     24546.056    
     10600   291.51102     -8935.9114      1410.288      -7525.6234      280.4076       0.98812314     24546.056    
     10700   302.31966     -8981.0061      1462.5786     -7518.4275     -223.55036      0.98812314     24546.056    
     10800   301.67351     -8969.7388      1459.4526     -7510.2862      313.78823      0.98812314     24546.056    
     10900   297.82911     -8941.8189      1440.854      -7500.965       1205.7289      0.98812314     24546.056    
     11000   300.3783      -8943.8759      1453.1866     -7490.6893      580.45303      0.98812314     24546.056    
     11100   299.07546     -8926.5525      1446.8836     -7479.6688      340.45866      0.98812314     24546.056    
     11200   302.74447     -8931.5711      1464.6338     -7466.9373      224.1838       0.98812314     24546.056    
     11300   299.51823     -8904.3696      1449.0257     -7455.3439      690.19417      0.98812314     24546.056    
     11400   297.45373     -8884.1266      1439.0379     -7445.0887      500.49048      0.98812314     24546.056    
     11500   301.07566     -8891.6959      1456.5603     -7435.1356     -312.62712      0.98812314     24546.056    
     11600   301.29324     -8882.6149      1457.6129     -7425.002      -142.81156      0.98812314     24546.056    
     11700   302.65519     -8878.7901      1464.2018     -7414.5882      251.50457      0.98812314     24546.056    
     11800   316.52346     -8934.2783      1531.2945     -7402.9838     -382.40533      0.98812314     24546.056    
     11900   308.09429     -8883.3461      1490.5154     -7392.8307     -5.1454686      0.98812314     24546.056    
     12000   310.40592     -8888.4768      1501.6988     -7386.778      -208.41299      0.98812314     24546.056    
     12100   313.64421     -8901.1562      1517.3651     -7383.7911      487.05295      0.98812314     24546.056    
     12200   306.53904     -8873.0526      1482.9913     -7390.0613      725.122        0.98812314     24546.056    
     12300   299.11478     -8855.2906      1447.0738     -7408.2167     -28.56358       0.98812314     24546.056    
     12400   302.75694     -8899.6719      1464.6941     -7434.9778      505.19063      0.98812314     24546.056    
     12500   300.04916     -8914.0413      1451.5942     -7462.447       340.13798      0.98812314     24546.056    
     12600   305.36093     -8959.1054      1477.2918     -7481.8136     -802.13546      0.98812314     24546.056    
     12700   297.70526     -8935.4893      1440.2548     -7495.2346     -22.852024      0.98812314     24546.056    
     12800   302.35853     -8968.8491      1462.7666     -7506.0825     -845.51327      0.98812314     24546.056    
     12900   294.37132     -8938.634       1424.1257     -7514.5083     -577.12046      0.98812314     24546.056    
     13000   298.31601     -8965.3119      1443.2095     -7522.1024     -364.74466      0.98812314     24546.056    
     13100   286.1045      -8913.8324      1384.132      -7529.7004      39.161219      0.98812314     24546.056    
     13200   295.2918      -8963.3042      1428.5788     -7534.7254     -388.56332      0.98812314     24546.056    
     13300   294.21455     -8961.6854      1423.3673     -7538.3182     -332.74392      0.98812314     24546.056    
     13400   300.85534     -8995.0828      1455.4944     -7539.5884     -401.48533      0.98812314     24546.056    
     13500   296.03677     -8971.9786      1432.1829     -7539.7957     -437.16274      0.98812314     24546.056    
     13600   293.68742     -8961.0757      1420.8171     -7540.2586     -7.9438297      0.98812314     24546.056    
     13700   296.29529     -8973.3585      1433.4336     -7539.9249      183.132        0.98812314     24546.056    
     13800   302.2146      -9001.3358      1462.0703     -7539.2655      29.890184      0.98812314     24546.056    
     13900   298.57394     -8984.0675      1444.4574     -7539.6102      21.462808      0.98812314     24546.056    
     14000   295.52747     -8971.0187      1429.719      -7541.2998      535.43296      0.98812314     24546.056    
     14100   290.10022     -8946.901       1403.4627     -7543.4383      485.04957      0.98812314     24546.056    
     14200   301.29627     -9006.1638      1457.6276     -7548.5362      343.68815      0.98812314     24546.056    
     14300   299.54022     -9005.6618      1449.1321     -7556.5297      185.06015      0.98812314     24546.056    
     14400   296.70653     -9001.7532      1435.4231     -7566.3302      10.477143      0.98812314     24546.056    
     14500   293.00849     -8994.5162      1417.5325     -7576.9836      443.86649      0.98812314     24546.056    
     14600   292.44309     -9002.4785      1414.7972     -7587.6813      46.795391      0.98812314     24546.056    
     14700   291.65286     -9010.1492      1410.9742     -7599.175      -555.52802      0.98812314     24546.056    
     14800   305.24826     -9084.9874      1476.7468     -7608.2406     -96.211322      0.98812314     24546.056    
     14900   292.0716      -9027.9697      1413          -7614.9697     -125.2267       0.98812314     24546.056    
     15000   286.09728     -9002.4791      1384.0971     -7618.382      -320.41386      0.98812314     24546.056    
     15100   287.23772     -9006.2253      1389.6143     -7616.6109     -108.2232       0.98812314     24546.056    
     15200   298.18302     -9053.3637      1442.5661     -7610.7976     -355.22455      0.98812314     24546.056    
     15300   296.87314     -9036.53        1436.2291     -7600.3009      111.62965      0.98812314     24546.056    
     15400   306.4196      -9068.9281      1482.4135     -7586.5146     -538.47838      0.98812314     24546.056    
     15500   300.48561     -9022.9372      1453.7057     -7569.2315     -498.44839      0.98812314     24546.056    
     15600   299.05571     -8994.8715      1446.7881     -7548.0834     -531.26219      0.98812314     24546.056    
     15700   303.85706     -8998.5459      1470.0163     -7528.5296     -686.26572      0.98812314     24546.056    
     15800   303.59436     -8981.2911      1468.7454     -7512.5457     -592.84998      0.98812314     24546.056    
     15900   306.33212     -8984.8352      1481.9903     -7502.8449     -213.10081      0.98812314     24546.056    
     16000   303.75194     -8968.398       1469.5077     -7498.8903      131.63717      0.98812314     24546.056    
     16100   293.71463     -8918.6062      1420.9487     -7497.6575     -79.488631      0.98812314     24546.056    
     16200   292.39559     -8910.4923      1414.5674     -7495.9249      246.79041      0.98812314     24546.056    
     16300   293.39571     -8913.2594      1419.4058     -7493.8536     -479.44892      0.98812314     24546.056    
     16400   292.87829     -8907.0434      1416.9026     -7490.1408     -643.03771      0.98812314     24546.056    
     16500   296.22761     -8916.9091      1433.1061     -7483.8029     -872.85093      0.98812314     24546.056    
     16600   291.30008     -8885.2134      1409.2675     -7475.9459     -1266.6192      0.98812314     24546.056    
     16700   293.25472     -8885.5385      1418.7237     -7466.8148     -1552.6341      0.98812314     24546.056    
     16800   290.72239     -8862.4156      1406.4727     -7455.943      -665.22463      0.98812314     24546.056    
     16900   296.91228     -8878.0165      1436.4185     -7441.598      -411.861        0.98812314     24546.056    
     17000   300.22222     -8879.9971      1452.4315     -7427.5656     -536.79687      0.98812314     24546.056    
     17100   305.73623     -8895.5761      1479.1075     -7416.4686     -898.69098      0.98812314     24546.056    
     17200   307.26163     -8897.7107      1486.4871     -7411.2236     -468.20704      0.98812314     24546.056    
     17300   300.79753     -8864.5429      1455.2147     -7409.3281     -92.725954      0.98812314     24546.056    
     17400   305.25629     -8887.3206      1476.7856     -7410.535      -813.79507      0.98812314     24546.056    
     17500   298.02225     -8854.1083      1441.7883     -7412.32       -1205.5451      0.98812314     24546.056    
     17600   304.6467      -8887.4463      1473.8365     -7413.6098     -327.19734      0.98812314     24546.056    
     17700   309.88039     -8914.9787      1499.1563     -7415.8224     -813.07198      0.98812314     24546.056    
     17800   306.47394     -8903.0514      1482.6764     -7420.375      -1088.7924      0.98812314     24546.056    
     17900   300.56967     -8879.2169      1454.1124     -7425.1045     -1435.6059      0.98812314     24546.056    
     18000   297.28885     -8869.5075      1438.2403     -7431.2673     -207.78899      0.98812314     24546.056    
     18100   297.46444     -8878.2565      1439.0898     -7439.1668     -353.31918      0.98812314     24546.056    
     18200   297.85162     -8886.6324      1440.9629     -7445.6695     -618.04146      0.98812314     24546.056    
     18300   301.5057      -8909.1696      1458.6408     -7450.5288     -1095.1076      0.98812314     24546.056    
     18400   294.36876     -8878.7191      1424.1133     -7454.6058     -362.90187      0.98812314     24546.056    
     18500   299.0878      -8905.0577      1446.9433     -7458.1143     -757.50803      0.98812314     24546.056    
     18600   302.31064     -8924.456       1462.5349     -7461.9211     -822.83023      0.98812314     24546.056    
     18700   301.0266      -8923.3174      1456.3229     -7466.9944      617.91243      0.98812314     24546.056    
     18800   304.39841     -8949.8277      1472.6353     -7477.1924      669.21254      0.98812314     24546.056    
     18900   307.46614     -8981.3611      1487.4765     -7493.8845     -224.3862       0.98812314     24546.056    
     19000   292.40589     -8929.5662      1414.6172     -7514.949      -224.13388      0.98812314     24546.056    
     19100   296.9589      -8970.1433      1436.644      -7533.4993     -901.16703      0.98812314     24546.056    
     19200   286.67696     -8933.6636      1386.9015     -7546.7621     -652.97332      0.98812314     24546.056    
     19300   289.93594     -8954.6764      1402.668      -7552.0084     -1085.4993      0.98812314     24546.056    
     19400   280.25082     -8906.5837      1355.8127     -7550.771      -339.06534      0.98812314     24546.056    
     19500   294.59451     -8970.8839      1425.2054     -7545.6784     -791.52846      0.98812314     24546.056    
     19600   297.7913      -8980.1947      1440.6711     -7539.5237     -135.14765      0.98812314     24546.056    
     19700   291.44608     -8943.9674      1409.9738     -7533.9936     -52.961737      0.98812314     24546.056    
     19800   287.94285     -8922.3589      1393.0257     -7529.3332      322.14548      0.98812314     24546.056    
     19900   297.0578      -8959.7592      1437.1225     -7522.6367      505.0015       0.98812314     24546.056    
     20000   298.04095     -8958.3984      1441.8788     -7516.5196      164.8431       0.98812314     24546.056    
     20100   295.91682     -8942.7001      1431.6026     -7511.0975      141.50511      0.98812314     24546.056    
     20200   297.61315     -8945.0097      1439.8092     -7505.2005     -65.764964      0.98812314     24546.056    
     20300   296.37909     -8934.0614      1433.839      -7500.2224      256.67672      0.98812314     24546.056    
     20400   298.0478      -8937.8969      1441.912      -7495.985       2.8768733      0.98812314     24546.056    
     20500   291.67149     -8904.6574      1411.0643     -7493.5932      407.88049      0.98812314     24546.056    
     20600   294.93677     -8917.4489      1426.8613     -7490.5877      795.66678      0.98812314     24546.056    
     20700   299.48746     -8935.6871      1448.8768     -7486.8103      57.073644      0.98812314     24546.056    
     20800   294.60081     -8912.2791      1425.2359     -7487.0432     -465.53607      0.98812314     24546.056    
     20900   299.17307     -8934.1568      1447.3558     -7486.801      -164.19214      0.98812314     24546.056    
     21000   303.52411     -8956.9743      1468.4055     -7488.5688     -272.55739      0.98812314     24546.056    
     21100   294.94052     -8916.4751      1426.8794     -7489.5957      116.25261      0.98812314     24546.056    
     21200   297.02332     -8927.3744      1436.9557     -7490.4188      594.08511      0.98812314     24546.056    
     21300   296.2986      -8923.2752      1433.4496     -7489.8256      624.22934      0.98812314     24546.056    
     21400   303.79586     -8959.7472      1469.7202     -7490.0269      339.0078       0.98812314     24546.056    
     21500   298.39985     -8935.0007      1443.6151     -7491.3855     -75.735033      0.98812314     24546.056    
     21600   297.63781     -8933.6475      1439.9285     -7493.719      -270.92558      0.98812314     24546.056    
     21700   310.95986     -9003.0169      1504.3786     -7498.6382     -31.047257      0.98812314     24546.056    
     21800   292.14181     -8923.3556      1413.3396     -7510.0159      410.83289      0.98812314     24546.056    
     21900   287.46915     -8912.9834      1390.734      -7522.2494     -306.7842       0.98812314     24546.056    
     22000   294.87884     -8965.0712      1426.581      -7538.4902      44.897564      0.98812314     24546.056    
     22100   295.0699      -8991.4416      1427.5053     -7563.9363     -225.59074      0.98812314     24546.056    
     22200   293.64997     -9020.0537      1420.6359     -7599.4178      34.417308      0.98812314     24546.056    
     22300   287.15898     -9015.145       1389.2334     -7625.9116     -29.729308      0.98812314     24546.056    
     22400   294.92541     -9063.2825      1426.8063     -7636.4762     -368.46724      0.98812314     24546.056    
     22500   287.30385     -9028.4342      1389.9343     -7638.4999      69.84266       0.98812314     24546.056    
     22600   290.97023     -9042.8616      1407.6717     -7635.19        253.28148      0.98812314     24546.056    
     22700   296.78533     -9061.2912      1435.8043     -7625.4868      127.77751      0.98812314     24546.056    
     22800   283.2375      -8984.1446      1370.2619     -7613.8827      555.66731      0.98812314     24546.056    
     22900   291.36605     -9006.8561      1409.5866     -7597.2695      295.1446       0.98812314     24546.056    
     23000   297.13107     -9017.9608      1437.477      -7580.4838      313.27886      0.98812314     24546.056    
     23100   292.98412     -8983.5867      1417.4146     -7566.1721     -225.91617      0.98812314     24546.056    
     23200   292.28686     -8964.7303      1414.0414     -7550.6889      0.51756211     0.98812314     24546.056    
     23300   298.69554     -8979.9473      1445.0456     -7534.9017     -178.54355      0.98812314     24546.056    
     23400   295.77897     -8950.4424      1430.9357     -7519.5067     -530.07132      0.98812314     24546.056    
     23500   292.96784     -8922.6273      1417.3358     -7505.2915     -146.70372      0.98812314     24546.056    
     23600   299.58951     -8943.2386      1449.3705     -7493.8681      187.88528      0.98812314     24546.056    
     23700   297.4437      -8926.0559      1438.9894     -7487.0665     -532.52556      0.98812314     24546.056    
     23800   284.54759     -8856.0407      1376.5999     -7479.4408      619.4178       0.98812314     24546.056    
     23900   308.28047     -8964.7035      1491.4161     -7473.2873      741.94458      0.98812314     24546.056    
     24000   306.84824     -8956.1071      1484.4872     -7471.6199      778.40324      0.98812314     24546.056    
     24100   306.79344     -8957.5683      1484.2221     -7473.3462     -37.924948      0.98812314     24546.056    
     24200   296.09926     -8909.9219      1432.4852     -7477.4367     -153.5747       0.98812314     24546.056    
     24300   290.41653     -8887.1522      1404.993      -7482.1593     -706.80951      0.98812314     24546.056    
     24400   288.63829     -8881.423       1396.3901     -7485.0329      4.2938514      0.98812314     24546.056    
     24500   299.62188     -8932.4712      1449.5271     -7482.944      -370.61312      0.98812314     24546.056    
     24600   300.86977     -8933.79        1455.5642     -7478.2257      110.5655       0.98812314     24546.056    
     24700   305.30236     -8948.9883      1477.0085     -7471.9798     -631.39839      0.98812314     24546.056    
     24800   300.91094     -8919.2912      1455.7634     -7463.5278     -285.01931      0.98812314     24546.056    
     24900   307.34294     -8941.4086      1486.8805     -7454.5281      179.20466      0.98812314     24546.056    
     25000   298.44198     -8889.8135      1443.819      -7445.9945     -118.89515      0.98812314     24546.056    
     25100   301.70967     -8896.8769      1459.6276     -7437.2493     -750.48864      0.98812314     24546.056    
     25200   308.28083     -8921.4083      1491.4179     -7429.9904     -48.489985      0.98812314     24546.056    
     25300   306.11564     -8908.0994      1480.943      -7427.1565      377.97616      0.98812314     24546.056    
     25400   305.31337     -8906.7004      1477.0617     -7429.6386      109.1351       0.98812314     24546.056    
     25500   294.31753     -8858.0682      1423.8654     -7434.2027     -764.55257      0.98812314     24546.056    
     25600   290.76412     -8844.3194      1406.6746     -7437.6448     -662.36638      0.98812314     24546.056    
     25700   293.81497     -8862.1386      1421.4341     -7440.7045     -666.85371      0.98812314     24546.056    
     25800   301.31592     -8899.9835      1457.7226     -7442.2609     -428.08542      0.98812314     24546.056    
     25900   297.70913     -8883.6988      1440.2735     -7443.4253     -603.13816      0.98812314     24546.056    
     26000   294.35619     -8867.5831      1424.0525     -7443.5306     -174.43057      0.98812314     24546.056    
     26100   306.02122     -8921.9131      1480.4862     -7441.4269     -328.97408      0.98812314     24546.056    
     26200   297.09892     -8875.7182      1437.3214     -7438.3968     -566.83814      0.98812314     24546.056    
     26300   307.94346     -8924.5278      1489.7857     -7434.742      -201.2927       0.98812314     24546.056    
     26400   302.06843     -8893.3295      1461.3632     -7431.9663     -142.41673      0.98812314     24546.056    
     26500   304.71818     -8903.2356      1474.1823     -7429.0533     -241.97179      0.98812314     24546.056    
     26600   305.69824     -8908.6007      1478.9237     -7429.6771      438.97422      0.98812314     24546.056    
     26700   300.10654     -8885.6753      1451.8718     -7433.8035     -81.224837      0.98812314     24546.056    
     26800   299.45768     -8888.3101      1448.7328     -7439.5774     -564.26189      0.98812314     24546.056    
     26900   287.67469     -8836.3559      1391.7284     -7444.6276     -69.812298      0.98812314     24546.056    
     27000   291.06337     -8855.3         1408.1223     -7447.1777     -154.84634      0.98812314     24546.056    
     27100   290.26715     -8849.8718      1404.2703     -7445.6015      66.794793      0.98812314     24546.056    
     27200   295.19279     -8868.406       1428.0998     -7440.3061      103.8833       0.98812314     24546.056    
     27300   298.75856     -8879.0511      1445.3505     -7433.7006      98.520678      0.98812314     24546.056    
     27400   296.38703     -8859.8884      1433.8774     -7426.011       235.70755      0.98812314     24546.056    
     27500   297.66681     -8856.5971      1440.0688     -7416.5284     -265.15222      0.98812314     24546.056    
     27600   303.16193     -8874.277       1466.6534     -7407.6236     -69.74267       0.98812314     24546.056    
     27700   316.96971     -8932.2022      1533.4534     -7398.7488     -485.1904       0.98812314     24546.056    
     27800   303.02198     -8858.3394      1465.9763     -7392.3631     -163.27245      0.98812314     24546.056    
     27900   299.6588      -8837.4997      1449.7058     -7387.7939     -388.77855      0.98812314     24546.056    
     28000   302.8962      -8850.0992      1465.3678     -7384.7314     -190.1149       0.98812314     24546.056    
     28100   297.80122     -8822.808       1440.719      -7382.089       210.86411      0.98812314     24546.056    
     28200   308.10592     -8874.142       1490.5717     -7383.5703      355.87035      0.98812314     24546.056    
     28300   306.10504     -8872.1211      1480.8917     -7391.2294      76.693232      0.98812314     24546.056    
     28400   301.27741     -8864.0807      1457.5363     -7406.5443      522.49017      0.98812314     24546.056    
     28500   303.59401     -8896.7928      1468.7437     -7428.0491     -76.805126      0.98812314     24546.056    
     28600   303.96378     -8919.5978      1470.5326     -7449.0652      419.16717      0.98812314     24546.056    
     28700   294.66265     -8894.8443      1425.5351     -7469.3092      512.54981      0.98812314     24546.056    
     28800   296.23651     -8916.1245      1433.1492     -7482.9753     -188.43721      0.98812314     24546.056    
     28900   292.3096      -8906.3239      1414.1514     -7492.1725     -165.67546      0.98812314     24546.056    
     29000   297.13934     -8934.1091      1437.517      -7496.5922     -430.61619      0.98812314     24546.056    
     29100   298.32796     -8942.0098      1443.2673     -7498.7425     -467.27027      0.98812314     24546.056    
     29200   301.78832     -8958.9074      1460.008      -7498.8994     -477.32706      0.98812314     24546.056    
     29300   286.44837     -8880.7236      1385.7956     -7494.928      -203.08935      0.98812314     24546.056    
     29400   296.38518     -8919.5784      1433.8685     -7485.7099     -510.0821       0.98812314     24546.056    
     29500   287.19081     -8864.3839      1389.3874     -7474.9965     -261.1069       0.98812314     24546.056    
     29600   302.35191     -8925.2727      1462.7346     -7462.5381     -388.64072      0.98812314     24546.056    
     29700   306.625       -8934.1834      1483.4072     -7450.7763     -51.107951      0.98812314     24546.056    
     29800   311.80442     -8952.0683      1508.4645     -7443.6039      350.92182      0.98812314     24546.056    
     29900   302.99255     -8908.3464      1465.8339     -7442.5124      703.47793      0.98812314     24546.056    
     30000   298.93385     -8890.2822      1446.1985     -7444.0837      602.89887      0.98812314     24546.056    
     30100   295.51963     -8874.8402      1429.681      -7445.1592      531.59248      0.98812314     24546.056    
     30200   303.15049     -8913.0063      1466.598      -7446.4083      678.90047      0.98812314     24546.056    
     30300   299.86596     -8902.6523      1450.7079     -7451.9444      357.77539      0.98812314     24546.056    
     30400   293.05039     -8881.9915      1417.7352     -7464.2563     -398.99897      0.98812314     24546.056    
     30500   294.08074     -8903.7236      1422.7199     -7481.0037     -61.129112      0.98812314     24546.056    
     30600   288.21        -8891.1329      1394.3181     -7496.8148     -227.50364      0.98812314     24546.056    
     30700   281.74979     -8870.1889      1363.0645     -7507.1244     -36.502144      0.98812314     24546.056    
     30800   292.11809     -8924.5548      1413.2249     -7511.3299      537.06381      0.98812314     24546.056    
     30900   297.33777     -8949.7788      1438.4769     -7511.3019      383.2465       0.98812314     24546.056    
     31000   299.62367     -8959.177       1449.5358     -7509.6412     -474.42077      0.98812314     24546.056    
     31100   292.74181     -8918.9711      1416.2423     -7502.7288     -447.29579      0.98812314     24546.056    
     31200   292.78146     -8905.6677      1416.4342     -7489.2335      99.136122      0.98812314     24546.056    
     31300   299.16015     -8917.0767      1447.2933     -7469.7834      195.23534      0.98812314     24546.056    
     31400   299.88543     -8903.297       1450.8021     -7452.4949      448.60993      0.98812314     24546.056    
     31500   302.94598     -8906.2485      1465.6086     -7440.6398      240.68294      0.98812314     24546.056    
     31600   296.52121     -8866.3824      1434.5265     -7431.8559     -212.64364      0.98812314     24546.056    
     31700   300.16328     -8877.983       1452.1463     -7425.8366     -2.395447       0.98812314     24546.056    
     31800   300.3003      -8875.9454      1452.8092     -7423.1362     -105.1813       0.98812314     24546.056    
     31900   302.20723     -8883.9377      1462.0347     -7421.903      -252.48405      0.98812314     24546.056    
     32000   293.7483      -8841.4697      1421.1116     -7420.3581      303.47931      0.98812314     24546.056    
     32100   305.28362     -8896.7054      1476.9178     -7419.7876     -358.34456      0.98812314     24546.056    
     32200   299.97599     -8870.9295      1451.2403     -7419.6892     -354.15645      0.98812314     24546.056    
     32300   304.51283     -8896.9076      1473.1889     -7423.7188     -227.32359      0.98812314     24546.056    
     32400   299.95532     -8884.2312      1451.1402     -7433.091      -352.55491      0.98812314     24546.056    
     32500   302.26469     -8911.7326      1462.3126     -7449.4199     -328.67702      0.98812314     24546.056    
     32600   298.26737     -8915.2461      1442.9742     -7472.2719     -406.78911      0.98812314     24546.056    
     32700   298.30816     -8940.6424      1443.1715     -7497.4708     -178.48557      0.98812314     24546.056    
     32800   288.61287     -8913.1011      1396.2672     -7516.8339     -568.63374      0.98812314     24546.056    
     32900   288.76994     -8923.2898      1397.027      -7526.2628     -452.34498      0.98812314     24546.056    
     33000   292.22        -8943.2978      1413.7179     -7529.5799     -135.78427      0.98812314     24546.056    
     33100   304.1123      -9000.1807      1471.2511     -7528.9296      273.34258      0.98812314     24546.056    
     33200   301.38403     -8986.3992      1458.0522     -7528.347      -275.15783      0.98812314     24546.056    
     33300   301.80363     -8987.3533      1460.0821     -7527.2711     -332.52245      0.98812314     24546.056    
     33400   298.52117     -8971.8609      1444.202      -7527.6588     -726.17319      0.98812314     24546.056    
     33500   283.13859     -8897.3138      1369.7834     -7527.5304      140.83628      0.98812314     24546.056    
     33600   299.56805     -8972.4533      1449.2667     -7523.1866     -302.59426      0.98812314     24546.056    
     33700   298.53503     -8962.6776      1444.2691     -7518.4085      44.752777      0.98812314     24546.056    
     33800   295.72537     -8942.89        1430.6764     -7512.2136     -392.68741      0.98812314     24546.056    
     33900   298.55126     -8949.4863      1444.3476     -7505.1386     -328.85807      0.98812314     24546.056    
     34000   295.3814      -8925.7075      1429.0123     -7496.6952     -625.63882      0.98812314     24546.056    
     34100   305.03507     -8962.5746      1475.7154     -7486.8592     -463.41493      0.98812314     24546.056    
     34200   303.36683     -8943.5363      1467.6447     -7475.8916     -9.2992548      0.98812314     24546.056    
     34300   299.33273     -8912.8377      1448.1283     -7464.7095     -148.34829      0.98812314     24546.056    
     34400   305.42048     -8926.6728      1477.5799     -7449.093      -251.58626      0.98812314     24546.056    
     34500   310.56072     -8936.7254      1502.4476     -7434.2777     -29.782589      0.98812314     24546.056    
     34600   305.96404     -8903.6006      1480.2096     -7423.391       506.49712      0.98812314     24546.056    
     34700   301.53222     -8874.3864      1458.7691     -7415.6173      370.80658      0.98812314     24546.056    
     34800   300.97682     -8864.0668      1456.0821     -7407.9847     -42.56752       0.98812314     24546.056    
     34900   296.8739      -8837.6008      1436.2328     -7401.368       61.926907      0.98812314     24546.056    
     35000   307.04021     -8879.755       1485.4159     -7394.3391     -152.49101      0.98812314     24546.056    
     35100   308.82724     -8882.6931      1494.0613     -7388.6318     -176.46102      0.98812314     24546.056    
     35200   311.26194     -8896.7982      1505.84       -7390.9582     -415.8623       0.98812314     24546.056    
     35300   299.69715     -8852.0075      1449.8913     -7402.1162      444.15357      0.98812314     24546.056    
     35400   305.8927      -8903.4428      1479.8644     -7423.5784      492.46835      0.98812314     24546.056    
     35500   299.04904     -8896.9467      1446.7558     -7450.1909      646.77689      0.98812314     24546.056    
     35600   306.38548     -8957.894       1482.2484     -7475.6456      536.46019      0.98812314     24546.056    
     35700   298.96059     -8940.5772      1446.3279     -7494.2494      728.47112      0.98812314     24546.056    
     35800   298.61439     -8951.9328      1444.653      -7507.2798      484.96951      0.98812314     24546.056    
     35900   304.81242     -8991.7406      1474.6382     -7517.1024      6.9427726      0.98812314     24546.056    
     36000   297.4021      -8964.8477      1438.7881     -7526.0595      34.515373      0.98812314     24546.056    
     36100   297.0425      -8972.0977      1437.0485     -7535.0492      128.25997      0.98812314     24546.056    
     36200   291.30784     -8953.0158      1409.305      -7543.7108     -808.4013       0.98812314     24546.056    
     36300   288.44939     -8943.4694      1395.4762     -7547.9932     -651.19672      0.98812314     24546.056    
     36400   298.03061     -8988.2216      1441.8288     -7546.3929     -209.03204      0.98812314     24546.056    
     36500   293.75804     -8960.92        1421.1587     -7539.7613      16.699072      0.98812314     24546.056    
     36600   299.31588     -8977.1396      1448.0467     -7529.0928     -101.99122      0.98812314     24546.056    
     36700   292.46146     -8931.3018      1414.886      -7516.4158      35.274678      0.98812314     24546.056    
     36800   290.88646     -8907.1627      1407.2664     -7499.8963     -996.71925      0.98812314     24546.056    
     36900   294.48882     -8905.4601      1424.6941     -7480.7659     -1361.7254      0.98812314     24546.056    
     37000   293.29868     -8883.0194      1418.9364     -7464.083      -275.38115      0.98812314     24546.056    
     37100   305.24149     -8928.1726      1476.714      -7451.4586      21.500386      0.98812314     24546.056    
     37200   307.04429     -8930.1496      1485.4356     -7444.714      -80.863552      0.98812314     24546.056    
     37300   310.56261     -8945.7916      1502.4568     -7443.3349     -238.01097      0.98812314     24546.056    
     37400   306.9385      -8930.3254      1484.9239     -7445.4015      277.06611      0.98812314     24546.056    
     37500   305.87886     -8930.4239      1479.7975     -7450.6264      565.19803      0.98812314     24546.056    
     37600   301.36387     -8917.9877      1457.9546     -7460.0331      576.65602      0.98812314     24546.056    
     37700   301.23249     -8930.5109      1457.319      -7473.1919      427.39271      0.98812314     24546.056    
     37800   302.39003     -8950.1396      1462.9191     -7487.2205      481.41427      0.98812314     24546.056    
     37900   305.85243     -8981.3495      1479.6696     -7501.6799      234.72847      0.98812314     24546.056    
     38000   298.77505     -8960.2094      1445.4303     -7514.7791     -145.215        0.98812314     24546.056    
     38100   298.43108     -8968.8254      1443.7662     -7525.0592     -95.777401      0.98812314     24546.056    
     38200   294.9598      -8959.2897      1426.9727     -7532.3171      64.718681      0.98812314     24546.056    
     38300   302.18217     -8998.3691      1461.9135     -7536.4556      551.72689      0.98812314     24546.056    
     38400   303.63769     -9009.2361      1468.955      -7540.2811      457.49361      0.98812314     24546.056    
     38500   299.42694     -8993.2369      1448.5841     -7544.6528      714.68569      0.98812314     24546.056    
     38600   294.84022     -8975.5746      1426.3942     -7549.1804      553.9154       0.98812314     24546.056    
     38700   296.38304     -8985.9353      1433.8581     -7552.0772      394.64186      0.98812314     24546.056    
     38800   296.52671     -8986.6107      1434.5531     -7552.0575      363.44756      0.98812314     24546.056    
     38900   290.00839     -8954.8805      1403.0185     -7551.862       413.08942      0.98812314     24546.056    
     39000   293.59905     -8968.1537      1420.3895     -7547.7642     -249.71791      0.98812314     24546.056    
     39100   287.94962     -8934.0205      1393.0584     -7540.962       379.42391      0.98812314     24546.056    
     39200   306.46537     -9011.9889      1482.6349     -7529.354      -115.49029      0.98812314     24546.056    
     39300   290.83824     -8919.83        1407.0331     -7512.7969      315.62553      0.98812314     24546.056    
     39400   302.00713     -8949.4189      1461.0666     -7488.3523     -103.59896      0.98812314     24546.056    
     39500   293.80735     -8884.641       1421.3973     -7463.2437      500.77981      0.98812314     24546.056    
     39600   297.24394     -8883.0017      1438.023      -7444.9787      106.18732      0.98812314     24546.056    
     39700   309.87559     -8935.7089      1499.1331     -7436.5758     -40.079494      0.98812314     24546.056    
     39800   310.84045     -8939.9043      1503.801      -7436.1034     -232.61116      0.98812314     24546.056    
     39900   300.25185     -8891.7357      1452.5748     -7439.1609     -261.96303      0.98812314     24546.056    
     40000   299.74511     -8892.9641      1450.1233     -7442.8408      109.01417      0.98812314     24546.056    
     40100   292.99229     -8864.5547      1417.4541     -7447.1005      1376.9663      0.98812314     24546.056    
     40200   300.38639     -8905.0565      1453.2257     -7451.8308      1309.632       0.98812314     24546.056    
     40300   297.3284      -8896.7715      1438.4316     -7458.3399      665.31444      0.98812314     24546.056    
     40400   300.01074     -8916.853       1451.4084     -7465.4446     -130.34944      0.98812314     24546.056    
     40500   299.28768     -8920.7872      1447.9103     -7472.8769     -24.761988      0.98812314     24546.056    
     40600   293.2845      -8899.6842      1418.8678     -7480.8165      1.6801311      0.98812314     24546.056    
     40700   295.2698      -8915.5763      1428.4724     -7487.1039     -488.22449      0.98812314     24546.056    
     40800   287.85693     -8886.8202      1392.61       -7494.2101     -396.23749      0.98812314     24546.056    
     40900   294.50925     -8925.1548      1424.793      -7500.3618     -1017.0547      0.98812314     24546.056    
     41000   286.96637     -8895.5549      1388.3016     -7507.2533      185.25428      0.98812314     24546.056    
     41100   292.95006     -8931.1615      1417.2498     -7513.9116     -451.52171      0.98812314     24546.056    
     41200   299.35136     -8970.3799      1448.2184     -7522.1615     -439.31798      0.98812314     24546.056    
     41300   298.87387     -8979.0308      1445.9084     -7533.1224      341.46988      0.98812314     24546.056    
     41400   294.86402     -8971.911       1426.5093     -7545.4017     -242.1008       0.98812314     24546.056    
     41500   291.48039     -8970.8574      1410.1398     -7560.7176     -422.95048      0.98812314     24546.056    
     41600   295.46503     -9003.9231      1429.4169     -7574.5062     -133.14309      0.98812314     24546.056    
     41700   292.26056     -9000.9353      1413.9141     -7587.0211     -130.38437      0.98812314     24546.056    
     41800   290.5941      -9002.5686      1405.852      -7596.7166     -149.12018      0.98812314     24546.056    
     41900   282.75425     -8968.4077      1367.924      -7600.4837      56.798521      0.98812314     24546.056    
     42000   289.05817     -8994.921       1398.4214     -7596.4995     -1068.9899      0.98812314     24546.056    
     42100   297.18869     -9024.1114      1437.7557     -7586.3557     -804.38147      0.98812314     24546.056    
     42200   295.50031     -9000.6428      1429.5876     -7571.0553      242.32597      0.98812314     24546.056    
     42300   297.9595      -8996.5374      1441.4848     -7555.0526      673.20378      0.98812314     24546.056    
     42400   296.21209     -8971.3701      1433.0311     -7538.3391      1031.9166      0.98812314     24546.056    
     42500   294.12401     -8945.7823      1422.9292     -7522.853       792.64378      0.98812314     24546.056    
     42600   299.62203     -8959.1831      1449.5279     -7509.6552     -3.203039       0.98812314     24546.056    
     42700   300.78488     -8955.4997      1455.1535     -7500.3462      123.39172      0.98812314     24546.056    
     42800   311.37869     -9002.5284      1506.4049     -7496.1236      214.39908      0.98812314     24546.056    
     42900   300.88007     -8952.659       1455.6141     -7497.0449      257.06288      0.98812314     24546.056    
     43000   300.01522     -8950.251       1451.4301     -7498.8209      260.24957      0.98812314     24546.056    
     43100   301.39301     -8961.7133      1458.0956     -7503.6177     -264.43725      0.98812314     24546.056    
     43200   303.77898     -8980.9858      1469.6386     -7511.3472     -458.9957       0.98812314     24546.056    
     43300   295.537       -8948.88        1429.7651     -7519.1149     -71.755864      0.98812314     24546.056    
     43400   296.80828     -8960.1262      1435.9154     -7524.2108     -32.860027      0.98812314     24546.056    
     43500   294.83806     -8952.8608      1426.3837     -7526.4771      6.119361       0.98812314     24546.056    
     43600   299.30251     -8977.9113      1447.9821     -7529.9292     -100.03427      0.98812314     24546.056    
     43700   292.47727     -8948.5316      1414.9626     -7533.5691      140.24056      0.98812314     24546.056    
     43800   292.53115     -8952.7438      1415.2232     -7537.5206     -204.67806      0.98812314     24546.056    
     43900   295.93928     -8971.7735      1431.7112     -7540.0623     -136.94551      0.98812314     24546.056    
     44000   292.66602     -8960.0245      1415.8757     -7544.1489     -111.82103      0.98812314     24546.056    
     44100   294.92516     -8975.4652      1426.8051     -7548.6601     -274.5139       0.98812314     24546.056    
     44200   299.75441     -9002.2395      1450.1683     -7552.0713     -60.658387      0.98812314     24546.056    
     44300   298.27819     -8998.1099      1443.0266     -7555.0834     -480.08307      0.98812314     24546.056    
     44400   298.30314     -9005.4929      1443.1472     -7562.3457      439.82656      0.98812314     24546.056    
     44500   296.7917      -9008.6041      1435.8351     -7572.769       105.14716      0.98812314     24546.056    
     44600   293.44152     -9003.6202      1419.6275     -7583.9928     -856.50951      0.98812314     24546.056    
     44700   284.61154     -8968.0596      1376.9093     -7591.1503     -401.33261      0.98812314     24546.056    
     44800   284.73393     -8969.0565      1377.5014     -7591.5551     -113.48592      0.98812314     24546.056    
     44900   299.57936     -9035.9134      1449.3214     -7586.592      -20.985515      0.98812314     24546.056    
     45000   296.18999     -9012.4585      1432.9242     -7579.5344      126.29451      0.98812314     24546.056    
     45100   297.54632     -9009.5625      1439.4859     -7570.0767      235.06763      0.98812314     24546.056    
     45200   294.39766     -8981.0847      1424.2531     -7556.8316      69.479817      0.98812314     24546.056    
     45300   295.2361      -8969.4973      1428.3094     -7541.1879     -47.951536      0.98812314     24546.056    
     45400   305.77433     -9002.4688      1479.2918     -7523.177      -564.35359      0.98812314     24546.056    
     45500   303.15745     -8974.6828      1466.6317     -7508.0511      216.03659      0.98812314     24546.056    
     45600   302.08531     -8958.4306      1461.4448     -7496.9858      691.6536       0.98812314     24546.056    
     45700   302.73767     -8954.2725      1464.6008     -7489.6717      28.510094      0.98812314     24546.056    
     45800   295.25516     -8915.7066      1428.4015     -7487.305       140.63675      0.98812314     24546.056    
     45900   300.52017     -8939.6052      1453.8729     -7485.7323     -186.68102      0.98812314     24546.056    
     46000   312.60092     -8999.0641      1512.3178     -7486.7462     -97.465887      0.98812314     24546.056    
     46100   303.51698     -8961.5998      1468.3711     -7493.2287      1147.8827      0.98812314     24546.056    
     46200   297.58034     -8941.4823      1439.6505     -7501.8318      918.4074       0.98812314     24546.056    
     46300   301.65779     -8970.3703      1459.3765     -7510.9938     -82.033948      0.98812314     24546.056    
     46400   292.01351     -8934.4786      1412.7189     -7521.7597      190.52551      0.98812314     24546.056    
     46500   294.14571     -8953.2847      1423.0342     -7530.2505      367.34507      0.98812314     24546.056    
     46600   302.57678     -9001.3163      1463.8225     -7537.4938      198.56511      0.98812314     24546.056    
     46700   296.17731     -8975.8766      1432.8628     -7543.0138      336.26444      0.98812314     24546.056    
     46800   300.63499     -8999.7516      1454.4284     -7545.3233     -461.10601      0.98812314     24546.056    
     46900   290.81253     -8954.0862      1406.9088     -7547.1775     -318.91791      0.98812314     24546.056    
     47000   296.32876     -8978.6335      1433.5955     -7545.0379     -968.32742      0.98812314     24546.056    
     47100   298.23133     -8986.1492      1442.7999     -7543.3494      56.267894      0.98812314     24546.056    
     47200   296.5667      -8977.1991      1434.7466     -7542.4525      101.24415      0.98812314     24546.056    
     47300   301.59552     -9001.1814      1459.0753     -7542.1061     -255.60751      0.98812314     24546.056    
     47400   295.30459     -8969.1244      1428.6407     -7540.4837      441.80877      0.98812314     24546.056    
     47500   300.28769     -8989.3394      1452.7482     -7536.5911      223.06169      0.98812314     24546.056    
     47600   299.91081     -8984.8673      1450.9249     -7533.9424      191.72558      0.98812314     24546.056    
     47700   294.30638     -8956.1352      1423.8115     -7532.3237      509.96184      0.98812314     24546.056    
     47800   304.02931     -9002.131       1470.8496     -7531.2813      391.6216       0.98812314     24546.056    
     47900   299.56265     -8981.9734      1449.2406     -7532.7328      796.04836      0.98812314     24546.056    
     48000   297.33199     -8974.8548      1438.449      -7536.4058      895.41892      0.98812314     24546.056    
     48100   301.9358      -9004.9601      1460.7215     -7544.2386      245.94752      0.98812314     24546.056    
     48200   294.27065     -8983.2968      1423.6387     -7559.6582      351.45991      0.98812314     24546.056    
     48300   291.30949     -8987.062       1409.313      -7577.749       203.77951      0.98812314     24546.056    
     48400   286.63551     -8982.0649      1386.7009     -7595.3639     -317.67982      0.98812314     24546.056    
     48500   282.30715     -8972.3852      1365.761      -7606.6243      254.68573      0.98812314     24546.056    
     48600   289.78459     -9012.1736      1401.9357     -7610.2378      84.17228       0.98812314     24546.056    
     48700   291.12714     -9016.8042      1408.4308     -7608.3734      288.01319      0.98812314     24546.056    
     48800   298.68        -9046.0371      1444.9704     -7601.0667      254.05367      0.98812314     24546.056    
     48900   294.76083     -9016.7565      1426.0101     -7590.7465      116.27496      0.98812314     24546.056    
     49000   305.29674     -9051.1569      1476.9813     -7574.1756     -333.018        0.98812314     24546.056    
     49100   290.51932     -8958.9262      1405.4902     -7553.436       460.30649      0.98812314     24546.056    
     49200   308.6689      -9025.6378      1493.2953     -7532.3426     -6.6981492      0.98812314     24546.056    
     49300   301.38652     -8975.9404      1458.0642     -7517.8762     -167.82258      0.98812314     24546.056    
     49400   298.81434     -8954.0323      1445.6204     -7508.412       45.689124      0.98812314     24546.056    
     49500   299.03594     -8950.4372      1446.6924     -7503.7448     -80.802724      0.98812314     24546.056    
     49600   302.83161     -8967.6699      1465.0553     -7502.6146      299.27155      0.98812314     24546.056    
     49700   307.24529     -8991.3007      1486.4081     -7504.8926      435.17117      0.98812314     24546.056    
     49800   305.01047     -8984.3988      1475.5963     -7508.8025      218.27259      0.98812314     24546.056    
     49900   301.43166     -8974.1413      1458.2826     -7515.8587      86.19524       0.98812314     24546.056    
     50000   302.97292     -8989.3597      1465.7389     -7523.6208     -220.96875      0.98812314     24546.056    
     50100   302.08048     -8993.4178      1461.4215     -7531.9964     -989.66328      0.98812314     24546.056    
     50200   296.2983      -8972.5029      1433.4481     -7539.0548     -419.52884      0.98812314     24546.056    
     50300   299.48068     -8993.4288      1448.844      -7544.5847     -119.33658      0.98812314     24546.056    
     50400   297.18596     -8988.9815      1437.7425     -7551.239       146.31501      0.98812314     24546.056    
     50500   297.59884     -8998.3357      1439.7399     -7558.5958     -349.25226      0.98812314     24546.056    
     50600   286.21256     -8953.0875      1384.6548     -7568.4327     -101.22107      0.98812314     24546.056    
     50700   295.88599     -9006.9501      1431.4534     -7575.4966     -871.61616      0.98812314     24546.056    
     50800   288.06128     -8971.9968      1393.5986     -7578.3982     -476.36919      0.98812314     24546.056    
     50900   291.50952     -8986.5644      1410.2807     -7576.2837     -508.61184      0.98812314     24546.056    
     51000   298.39054     -9014.1081      1443.5701     -7570.538      -499.53067      0.98812314     24546.056    
     51100   299.85083     -9011.9637      1450.6348     -7561.3289      142.30109      0.98812314     24546.056    
     51200   303.05762     -9013.3736      1466.1488     -7547.2249     -251.78836      0.98812314     24546.056    
     51300   291.36188     -8940.6185      1409.5665     -7531.0521      77.842494      0.98812314     24546.056    
     51400   295.7506      -8944.1205      1430.7984     -7513.3221      52.218998      0.98812314     24546.056    
     51500   299.09686     -8944.9745      1446.9871     -7497.9874     -308.80973      0.98812314     24546.056    
     51600   300.48585     -8940.6777      1453.7069     -7486.9708      253.55125      0.98812314     24546.056    
     51700   307.25062     -8965.6636      1486.4339     -7479.2298     -704.90931      0.98812314     24546.056    
     51800   300.01238     -8926.8805      1451.4163     -7475.4641     -271.72996      0.98812314     24546.056    
     51900   304.60003     -8951.3476      1473.6107     -7477.7369     -238.65184      0.98812314     24546.056    
     52000   297.89355     -8926.5406      1441.1657     -7485.3749      138.80099      0.98812314     24546.056    
     52100   305.08943     -8972.2894      1475.9783     -7496.311      -215.45313      0.98812314     24546.056    
     52200   298.68467     -8953.3122      1444.9931     -7508.3191     -248.6055       0.98812314     24546.056    
     52300   290.1783      -8923.7905      1403.8405     -7519.95       -869.05889      0.98812314     24546.056    
     52400   288.24863     -8924.3127      1394.505      -7529.8077     -55.887845      0.98812314     24546.056    
     52500   303.27741     -9003.2324      1467.212      -7536.0204     -474.3509       0.98812314     24546.056    
     52600   302.92711     -9010.0147      1465.5173     -7544.4973     -254.24842      0.98812314     24546.056    
     52700   295.9045      -8987.484       1431.543      -7555.941       43.271254      0.98812314     24546.056    
     52800   295.52162     -8999.2019      1429.6907     -7569.5113     -258.90726      0.98812314     24546.056    
     52900   297.93361     -9027.5475      1441.3595     -7586.188       608.71367      0.98812314     24546.056    
     53000   300.38158     -9061.8952      1453.2024     -7608.6927      899.63957      0.98812314     24546.056    
     53100   298.40324     -9078.2242      1443.6315     -7634.5927      244.64378      0.98812314     24546.056    
     53200   280.4821      -9009.8237      1356.9316     -7652.8921      42.619016      0.98812314     24546.056    
     53300   288.18713     -9054.0681      1394.2074     -7659.8607     -756.45807      0.98812314     24546.056    
     53400   295.07026     -9086.3849      1427.5071     -7658.8778     -141.1037       0.98812314     24546.056    
     53500   285.17734     -9033.9392      1379.6465     -7654.2927     -144.97251      0.98812314     24546.056    
     53600   287.02894     -9033.8852      1388.6043     -7645.2809     -138.43959      0.98812314     24546.056    
     53700   290.51726     -9038.7378      1405.4803     -7633.2575      859.00889      0.98812314     24546.056    
     53800   299.25774     -9067.4405      1447.7655     -7619.675       482.99612      0.98812314     24546.056    
     53900   293.25836     -9028.1175      1418.7414     -7609.3762      936.18052      0.98812314     24546.056    
     54000   301.43872     -9059.7892      1458.3167     -7601.4725     -142.77063      0.98812314     24546.056    
     54100   297.37397     -9034.1423      1438.6521     -7595.4902     -432.88197      0.98812314     24546.056    
     54200   297.87325     -9031.7825      1441.0675     -7590.7151     -111.22611      0.98812314     24546.056    
     54300   299.49642     -9031.6984      1448.9202     -7582.7782     -887.80986      0.98812314     24546.056    
     54400   292.3453      -8988.5727      1414.3241     -7574.2487      355.71894      0.98812314     24546.056    
     54500   294.33977     -8987.9966      1423.9731     -7564.0236     -156.5967       0.98812314     24546.056    
     54600   282.24045     -8918.205       1365.4383     -7552.7667     -46.316636      0.98812314     24546.056    
     54700   293.92089     -8960.9948      1421.9465     -7539.0482     -406.0649       0.98812314     24546.056    
     54800   299.2618      -8973.5998      1447.7851     -7525.8147     -974.29899      0.98812314     24546.056    
     54900   302.31401     -8976.8414      1462.5512     -7514.2902     -862.32825      0.98812314     24546.056    
     55000   301.48571     -8965.5659      1458.5441     -7507.0218     -431.24792      0.98812314     24546.056    
     55100   293.57682     -8924.8456      1420.282      -7504.5636     -277.17395      0.98812314     24546.056    
     55200   303.30839     -8971.1363      1467.3619     -7503.7744     -583.78388      0.98812314     24546.056    
     55300   291.85639     -8917.0111      1411.9588     -7505.0523      347.92417      0.98812314     24546.056    
     55400   296.2928      -8939.5307      1433.4215     -7506.1092     -978.5468       0.98812314     24546.056    
     55500   290.83432     -8912.6129      1407.0142     -7505.5987     -992.99235      0.98812314     24546.056    
     55600   298.18928     -8944.6085      1442.5964     -7502.0121     -889.84804      0.98812314     24546.056    
     55700   300.05077     -8951.2115      1451.602      -7499.6095     -245.25266      0.98812314     24546.056    
     55800   300.71468     -8950.5106      1454.8139     -7495.6967     -448.23105      0.98812314     24546.056    
     55900   301.07616     -8951.4594      1456.5627     -7494.8967     -112.23422      0.98812314     24546.056    
     56000   300.14022     -8948.1416      1452.0348     -7496.1068      127.71017      0.98812314     24546.056    
     56100   299.33111     -8949.0733      1448.1204     -7500.9529     -567.90681      0.98812314     24546.056    
     56200   295.86679     -8938.7862      1431.3606     -7507.4257     -273.49056      0.98812314     24546.056    
     56300   292.36791     -8928.3913      1414.4335     -7513.9578     -230.76732      0.98812314     24546.056    
     56400   294.01317     -8943.2659      1422.393      -7520.8729     -317.95121      0.98812314     24546.056    
     56500   296.24115     -8966.0465      1433.1717     -7532.8748      223.71757      0.98812314     24546.056    
     56600   297.01733     -8987.7464      1436.9267     -7550.8197     -216.34949      0.98812314     24546.056    
     56700   295.72505     -9002.0447      1430.6748     -7571.3699      364.78329      0.98812314     24546.056    
     56800   291.48969     -8998.6894      1410.1848     -7588.5046     -56.32736       0.98812314     24546.056    
     56900   290.04616     -9003.2884      1403.2012     -7600.0872     -181.81697      0.98812314     24546.056    
     57000   286.90311     -8994.0246      1387.9955     -7606.0291      128.52871      0.98812314     24546.056    
     57100   285.33555     -8986.4185      1380.4119     -7606.0066     -432.97288      0.98812314     24546.056    
     57200   286.56994     -8985.1831      1386.3837     -7598.7994     -532.98517      0.98812314     24546.056    
     57300   289.01516     -8984.2495      1398.2134     -7586.0361     -528.38734      0.98812314     24546.056    
     57400   293.6307      -8988.1357      1420.5427     -7567.593      -882.42905      0.98812314     24546.056    
     57500   291.22582     -8957.553       1408.9082     -7548.6448     -404.46838      0.98812314     24546.056    
     57600   298.38524     -8977.2495      1443.5444     -7533.7051     -425.83077      0.98812314     24546.056    
     57700   298.17164     -8964.5789      1442.5111     -7522.0678     -256.21228      0.98812314     24546.056    
     57800   309.75092     -9012.3118      1498.5299     -7513.7818     -1130.0188      0.98812314     24546.056    
     57900   294.02477     -8930.4617      1422.4491     -7508.0126     -945.17843      0.98812314     24546.056    
     58000   291.51323     -8910.9072      1410.2986     -7500.6086     -41.401649      0.98812314     24546.056    
     58100   303.50716     -8962.0036      1468.3236     -7493.68        260.80752      0.98812314     24546.056    
     58200   301.65183     -8949.6512      1459.3477     -7490.3035      144.99765      0.98812314     24546.056    
     58300   294.34745     -8911.8989      1424.0102     -7487.8887     -170.79477      0.98812314     24546.056    
     58400   289.44144     -8884.9384      1400.2756     -7484.6628     -193.41165      0.98812314     24546.056    
     58500   304.89813     -8953.4309      1475.0528     -7478.3781     -815.0771       0.98812314     24546.056    
     58600   296.30799     -8905.0267      1433.495      -7471.5317     -313.78135      0.98812314     24546.056    
     58700   293.81897     -8886.061       1421.4535     -7464.6075      40.035685      0.98812314     24546.056    
     58800   298.27954     -8900.8217      1443.0331     -7457.7886      141.02028      0.98812314     24546.056    
     58900   303.00704     -8912.9079      1465.9041     -7447.0038     -610.99478      0.98812314     24546.056    
     59000   306.93487     -8917.4902      1484.9063     -7432.5839     -530.50701      0.98812314     24546.056    
     59100   296.74188     -8851.2461      1435.5941     -7415.652      -25.681549      0.98812314     24546.056    
     59200   308.78091     -8891.9706      1493.8372     -7398.1335      70.283489      0.98812314     24546.056    
     59300   308.53902     -8875.8197      1492.6669     -7383.1528      565.61879      0.98812314     24546.056    
     59400   305.43803     -8850.0275      1477.6648     -7372.3627      268.7957       0.98812314     24546.056    
     59500   310.74097     -8869.6322      1503.3197     -7366.3125     -724.31834      0.98812314     24546.056    
     59600   308.40193     -8857.4748      1492.0037     -7365.471       23.585083      0.98812314     24546.056    
     59700   300.23629     -8821.5032      1452.4995     -7369.0036     -128.77231      0.98812314     24546.056    
     59800   299.59028     -8828.3517      1449.3742     -7378.9775     -14.935091      0.98812314     24546.056    
     59900   306.20952     -8877.3936      1481.3972     -7395.9964     -457.36472      0.98812314     24546.056    
     60000   297.16707     -8861.5064      1437.6511     -7423.8553     -137.68249      0.98812314     24546.056    
     60100   304.58265     -8925.9468      1473.5266     -7452.4202      133.00723      0.98812314     24546.056    
     60200   299.72179     -8925.1624      1450.0105     -7475.1519      519.80485      0.98812314     24546.056    
     60300   295.65182     -8917.7708      1430.3206     -7487.4502      479.90561      0.98812314     24546.056    
     60400   290.89012     -8901.469       1407.2841     -7494.1849      220.31687      0.98812314     24546.056    
     60500   289.18697     -8896.1357      1399.0445     -7497.0911     -111.24476      0.98812314     24546.056    
     60600   290.25919     -8900.5996      1404.2318     -7496.3678     -227.0189       0.98812314     24546.056    
     60700   293.54379     -8911.6931      1420.1222     -7491.5709     -45.282672      0.98812314     24546.056    
     60800   306.21643     -8964.6672      1481.4306     -7483.2366      317.91212      0.98812314     24546.056    
     60900   294.28641     -8897.6937      1423.7149     -7473.9788      776.70784      0.98812314     24546.056    
     61000   302.44449     -8929.4133      1463.1825     -7466.2308      463.24561      0.98812314     24546.056    
     61100   300.14535     -8910.1592      1452.0596     -7458.0996      843.53223      0.98812314     24546.056    
     61200   302.21408     -8914.6374      1462.0678     -7452.5696      430.29717      0.98812314     24546.056    
     61300   307.95001     -8940.3632      1489.8174     -7450.5458      452.3851       0.98812314     24546.056    
     61400   307.24031     -8937.0047      1486.384      -7450.6207      50.638489      0.98812314     24546.056    
     61500   298.1178      -8897.0034      1442.2506     -7454.7528     -241.59482      0.98812314     24546.056    
     61600   299.45404     -8909.8054      1448.7151     -7461.0903     -162.00228      0.98812314     24546.056    
     61700   297.61014     -8909.7854      1439.7946     -7469.9908     -156.42924      0.98812314     24546.056    
     61800   305.71088     -8963.3614      1478.9848     -7484.3766     -136.20153      0.98812314     24546.056    
     61900   299.62738     -8953.3326      1449.5537     -7503.7788      215.06242      0.98812314     24546.056    
     62000   298.9226      -8969.0342      1446.1441     -7522.89        103.97816      0.98812314     24546.056    
[...]
    984700   297.33425     -8893.7085      1438.4599     -7455.2486     -406.80721      0.98812314     24546.056    
    984800   299.08746     -8889.9647      1446.9417     -7443.023      -124.74835      0.98812314     24546.056    
    984900   304.48125     -8909.9093      1473.0361     -7436.8733      1026.2971      0.98812314     24546.056    
    985000   303.24485     -8901.4894      1467.0545     -7434.4348      717.10027      0.98812314     24546.056    
    985100   298.69144     -8882.8237      1445.0258     -7437.7979      224.16299      0.98812314     24546.056    
    985200   298.80384     -8888.5296      1445.5696     -7442.9601      224.32469      0.98812314     24546.056    
    985300   301.71494     -8909.947       1459.6531     -7450.294       300.42483      0.98812314     24546.056    
    985400   300.5031      -8914.0363      1453.7903     -7460.2459      207.90711      0.98812314     24546.056    
    985500   299.93555     -8923.766       1451.0446     -7472.7214      30.657809      0.98812314     24546.056    
    985600   294.41322     -8909.5604      1424.3284     -7485.232      -594.62084      0.98812314     24546.056    
    985700   299.55174     -8945.2733      1449.1878     -7496.0855     -364.01754      0.98812314     24546.056    
    985800   305.49666     -8986.3279      1477.9485     -7508.3795     -553.12479      0.98812314     24546.056    
    985900   300.94178     -8979.3029      1455.9126     -7523.3903     -183.52741      0.98812314     24546.056    
    986000   290.53863     -8944.2291      1405.5837     -7538.6454     -404.75881      0.98812314     24546.056    
    986100   293.33816     -8967.5795      1419.1274     -7548.4521     -529.98468      0.98812314     24546.056    
    986200   295.26957     -8980.2998      1428.4713     -7551.8286      48.270046      0.98812314     24546.056    
    986300   301.08713     -9009.444       1456.6158     -7552.8282     -361.27151      0.98812314     24546.056    
    986400   302.82359     -9018.0294      1465.0165     -7553.0128     -752.36054      0.98812314     24546.056    
    986500   290.68804     -8957.7297      1406.3065     -7551.4232     -538.22894      0.98812314     24546.056    
    986600   297.16177     -8984.0086      1437.6255     -7546.3831     -954.55439      0.98812314     24546.056    
    986700   301.71999     -8999.662       1459.6775     -7539.9845     -81.214995      0.98812314     24546.056    
    986800   298.25871     -8979.1054      1442.9323     -7536.1731      313.06997      0.98812314     24546.056    
    986900   302.49367     -8996.1888      1463.4204     -7532.7684     -483.72972      0.98812314     24546.056    
    987000   286.99727     -8917.0532      1388.4511     -7528.6021      382.23102      0.98812314     24546.056    
    987100   296.42199     -8957.5487      1434.0465     -7523.5021      16.959799      0.98812314     24546.056    
    987200   292.19545     -8930.5157      1413.5991     -7516.9166     -201.98292      0.98812314     24546.056    
    987300   288.01764     -8900.8287      1393.3875     -7507.4412      220.97433      0.98812314     24546.056    
    987400   300.36268     -8949.7022      1453.111      -7496.5912      790.17832      0.98812314     24546.056    
    987500   306.31424     -8969.2603      1481.9038     -7487.3565      56.576367      0.98812314     24546.056    
    987600   302.10444     -8944.0268      1461.5374     -7482.4894     -213.62532      0.98812314     24546.056    
    987700   298.12603     -8921.0344      1442.2904     -7478.744      -437.30761      0.98812314     24546.056    
    987800   294.60638     -8901.9757      1425.2628     -7476.7129     -77.486328      0.98812314     24546.056    
    987900   302.61604     -8939.3142      1464.0124     -7475.3018      230.16163      0.98812314     24546.056    
    988000   300.74813     -8930.0035      1454.9757     -7475.0278      6.116098       0.98812314     24546.056    
    988100   312.51092     -8988.3467      1511.8824     -7476.4643     -691.3217       0.98812314     24546.056    
    988200   304.83027     -8958.0463      1474.7245     -7483.3218     -425.20614      0.98812314     24546.056    
    988300   292.89854     -8912.8842      1417.0006     -7495.8836     -896.57745      0.98812314     24546.056    
    988400   292.28679     -8921.4122      1414.041      -7507.3712     -785.26056      0.98812314     24546.056    
    988500   287.84261     -8907.3055      1392.5407     -7514.7648     -609.87231      0.98812314     24546.056    
    988600   293.78814     -8939.9558      1421.3044     -7518.6514     -592.86721      0.98812314     24546.056    
    988700   297.90997     -8962.58        1441.2452     -7521.3348     -418.11572      0.98812314     24546.056    
    988800   292.25359     -8934.5246      1413.8804     -7520.6442      111.71937      0.98812314     24546.056    
    988900   287.16966     -8904.8159      1389.2851     -7515.5308     -175.49963      0.98812314     24546.056    
    989000   288.82711     -8903.4325      1397.3036     -7506.1289     -628.76554      0.98812314     24546.056    
    989100   292.42458     -8906.2066      1414.7076     -7491.499      -13.608911      0.98812314     24546.056    
    989200   293.70952     -8894.4547      1420.924      -7473.5307     -757.65825      0.98812314     24546.056    
    989300   295.69408     -8886.7524      1430.525      -7456.2273     -716.0885       0.98812314     24546.056    
    989400   297.70997     -8879.9236      1440.2776     -7439.646      -708.64542      0.98812314     24546.056    
    989500   301.13154     -8883.6784      1456.8306     -7426.8478     -480.57453      0.98812314     24546.056    
    989600   303.01892     -8885.1849      1465.9615     -7419.2233     -79.817959      0.98812314     24546.056    
    989700   303.28214     -8881.1418      1467.2349     -7413.9068     -210.19997      0.98812314     24546.056    
    989800   302.89158     -8877.2005      1465.3455     -7411.855      -256.17708      0.98812314     24546.056    
    989900   297.08078     -8850.8714      1437.2337     -7413.6377     -408.28657      0.98812314     24546.056    
    990000   297.93827     -8856.7426      1441.3821     -7415.3605      311.5198       0.98812314     24546.056    
    990100   300.51846     -8871.1964      1453.8646     -7417.3317     -55.288417      0.98812314     24546.056    
    990200   299.66701     -8870.7408      1449.7454     -7420.9954     -359.05946      0.98812314     24546.056    
    990300   297.54292     -8868.0355      1439.4694     -7428.5661     -879.24405      0.98812314     24546.056    
    990400   304.24601     -8908.7092      1471.898      -7436.8112     -788.47596      0.98812314     24546.056    
    990500   293.12823     -8867.734       1418.1118     -7449.6222     -265.36026      0.98812314     24546.056    
    990600   306.39542     -8949.0841      1482.2965     -7466.7876     -706.95269      0.98812314     24546.056    
    990700   300.16152     -8943.4271      1452.1378     -7491.2893      244.53669      0.98812314     24546.056    
    990800   297.23374     -8956.0026      1437.9736     -7518.029       585.35036      0.98812314     24546.056    
    990900   291.28806     -8943.7803      1409.2093     -7534.571      -1020.2524      0.98812314     24546.056    
    991000   276.19248     -8875.9431      1336.1791     -7539.764      -379.33256      0.98812314     24546.056    
    991100   290.93647     -8943.7701      1407.5084     -7536.2618     -641.17657      0.98812314     24546.056    
    991200   289.09028     -8928.1346      1398.5768     -7529.5578     -71.116363      0.98812314     24546.056    
    991300   290.33577     -8924.2421      1404.6023     -7519.6398      195.31138      0.98812314     24546.056    
    991400   299.65944     -8956.7505      1449.7088     -7507.0417      62.643264      0.98812314     24546.056    
    991500   291.44571     -8905.1189      1409.972      -7495.1469      504.5329       0.98812314     24546.056    
    991600   292.08297     -8897.0131      1413.055      -7483.9581     -390.63115      0.98812314     24546.056    
    991700   298.89176     -8919.5369      1445.9949     -7473.542      -321.52294      0.98812314     24546.056    
    991800   296.75161     -8900.3839      1435.6412     -7464.7428     -231.71393      0.98812314     24546.056    
    991900   302.59784     -8922.4173      1463.9244     -7458.4929     -170.34433      0.98812314     24546.056    
    992000   300.80251     -8908.8085      1455.2389     -7453.5696     -255.79096      0.98812314     24546.056    
    992100   294.90023     -8877.2953      1426.6845     -7450.6109      149.0041       0.98812314     24546.056    
    992200   299.30628     -8896.3983      1448.0003     -7448.3981      86.221178      0.98812314     24546.056    
    992300   300.60201     -8898.6084      1454.2689     -7444.3396     -57.297157      0.98812314     24546.056    
    992400   293.295       -8859.2571      1418.9186     -7440.3385      219.22809      0.98812314     24546.056    
    992500   298.64127     -8879.9164      1444.7831     -7435.1333      55.926652      0.98812314     24546.056    
    992600   301.91235     -8887.1232      1460.6081     -7426.5151     -156.56268      0.98812314     24546.056    
    992700   306.39358     -8899.0793      1482.2876     -7416.7917      102.88163      0.98812314     24546.056    
    992800   308.32177     -8899.9135      1491.6159     -7408.2976      64.670517      0.98812314     24546.056    
    992900   308.18819     -8893.3137      1490.9697     -7402.344       170.8718       0.98812314     24546.056    
    993000   306.92388     -8884.2955      1484.8531     -7399.4424      12.339997      0.98812314     24546.056    
    993100   298.37346     -8844.3644      1443.4875     -7400.8769      583.73739      0.98812314     24546.056    
    993200   298.58156     -8852.5141      1444.4942     -7408.0199      255.30429      0.98812314     24546.056    
    993300   295.87924     -8851.1442      1431.4208     -7419.7234      258.64668      0.98812314     24546.056    
    993400   308.0784      -8926.1275      1490.4386     -7435.6889      287.65958      0.98812314     24546.056    
    993500   289.48411     -8854.2764      1400.4821     -7453.7943      25.557048      0.98812314     24546.056    
    993600   288.91278     -8867.529       1397.718      -7469.811       75.054412      0.98812314     24546.056    
    993700   293.87865     -8902.442       1421.7422     -7480.6998     -418.85988      0.98812314     24546.056    
    993800   301.18362     -8946.0624      1457.0826     -7488.9798     -662.38184      0.98812314     24546.056    
    993900   290.81891     -8904.1175      1406.9396     -7497.1779     -7.16104        0.98812314     24546.056    
    994000   295.45351     -8930.4424      1429.3611     -7501.0812     -591.4232       0.98812314     24546.056    
    994100   301.06875     -8959.4578      1456.5269     -7502.931      -413.74168      0.98812314     24546.056    
    994200   299.10779     -8953.5271      1447.04       -7506.4871      223.53396      0.98812314     24546.056    
    994300   295.00323     -8938.7283      1427.1828     -7511.5455      137.95436      0.98812314     24546.056    
    994400   298.33478     -8960.9022      1443.3003     -7517.6019     -144.96141      0.98812314     24546.056    
    994500   297.30964     -8963.2152      1438.3408     -7524.8744     -1253.5856      0.98812314     24546.056    
    994600   298.03841     -8974.0749      1441.8665     -7532.2083     -1094.5479      0.98812314     24546.056    
    994700   287.93295     -8933.749       1392.9778     -7540.7713      192.22548      0.98812314     24546.056    
    994800   292.9315      -8971.12        1417.16       -7553.9599      255.41242      0.98812314     24546.056    
    994900   293.16586     -8991.2325      1418.2938     -7572.9387     -447.28211      0.98812314     24546.056    
    995000   280.72505     -8951.1387      1358.107      -7593.0317     -544.56473      0.98812314     24546.056    
    995100   282.85359     -8973.8734      1368.4046     -7605.4688     -675.1731       0.98812314     24546.056    
    995200   289.85257     -9011.4019      1402.2646     -7609.1373     -793.0309       0.98812314     24546.056    
    995300   284.09988     -8979.5474      1374.4339     -7605.1135     -405.2816       0.98812314     24546.056    
    995400   286.73476     -8981.2441      1387.1811     -7594.063      -820.53341      0.98812314     24546.056    
    995500   293.86119     -8997.0965      1421.6577     -7575.4388     -462.554        0.98812314     24546.056    
    995600   295.69536     -8984.9945      1430.5312     -7554.4633     -185.52533      0.98812314     24546.056    
    995700   295.4328      -8968.2646      1429.261      -7539.0036     -772.07624      0.98812314     24546.056    
    995800   299.14223     -8974.52        1447.2066     -7527.3133     -776.51477      0.98812314     24546.056    
    995900   286.09958     -8901.0058      1384.1082     -7516.8977     -751.47769      0.98812314     24546.056    
    996000   298.99397     -8952.1013      1446.4894     -7505.6119     -678.53177      0.98812314     24546.056    
    996100   298.68594     -8939.6542      1444.9992     -7494.655       298.66061      0.98812314     24546.056    
    996200   296.94994     -8921.7202      1436.6007     -7485.1196     -164.19333      0.98812314     24546.056    
    996300   297.43991     -8916.1039      1438.9711     -7477.1328     -436.00437      0.98812314     24546.056    
    996400   294.42798     -8895.8737      1424.3998     -7471.4739      638.107        0.98812314     24546.056    
    996500   302.17891     -8928.1064      1461.8977     -7466.2088      124.2931       0.98812314     24546.056    
    996600   302.44251     -8923.352       1463.1729     -7460.1791     -128.116        0.98812314     24546.056    
    996700   304.20476     -8928.5382      1471.6984     -7456.8398      192.60077      0.98812314     24546.056    
    996800   315.8951      -8984.2033      1528.2546     -7455.9487     -638.84461      0.98812314     24546.056    
    996900   307.95961     -8951.0115      1489.8638     -7461.1476      164.98873      0.98812314     24546.056    
    997000   304.15345     -8942.3175      1471.4502     -7470.8673      148.41517      0.98812314     24546.056    
    997100   304.44599     -8959.8652      1472.8655     -7486.9998     -1242.719       0.98812314     24546.056    
    997200   307.99597     -8998.4729      1490.0398     -7508.4331     -861.70346      0.98812314     24546.056    
    997300   295.70961     -8961.2507      1430.6001     -7530.6506     -588.31228      0.98812314     24546.056    
    997400   294.89476     -8973.0003      1426.658      -7546.3424     -1498.7487      0.98812314     24546.056    
    997500   291.97723     -8967.7714      1412.5434     -7555.228       72.751147      0.98812314     24546.056    
    997600   296.41882     -8995.5331      1434.0312     -7561.5019      182.72007      0.98812314     24546.056    
    997700   296.46116     -9000.5054      1434.236      -7566.2694      103.67829      0.98812314     24546.056    
    997800   286.30758     -8954.3403      1385.1145     -7569.2258      1318.5583      0.98812314     24546.056    
    997900   292.79187     -8986.585       1416.4845     -7570.1005      585.98731      0.98812314     24546.056    
    998000   300.2394      -9021.772       1452.5146     -7569.2574      159.48885      0.98812314     24546.056    
    998100   296.27055     -9000.0069      1433.3139     -7566.6931      47.327297      0.98812314     24546.056    
    998200   281.98649     -8927.0716      1364.2097     -7562.8619     -292.09797      0.98812314     24546.056    
    998300   288.15509     -8948.5026      1394.0525     -7554.4501     -314.88021      0.98812314     24546.056    
    998400   293.46795     -8959.8435      1419.7553     -7540.0882     -41.141218      0.98812314     24546.056    
    998500   296.74921     -8958.3896      1435.6296     -7522.76       -279.82239      0.98812314     24546.056    
    998600   302.01595     -8967.4205      1461.1093     -7506.3113      284.14135      0.98812314     24546.056    
    998700   304.3444      -8965.9176      1472.374      -7493.5436     -219.80737      0.98812314     24546.056    
    998800   295.82362     -8914.4815      1431.1517     -7483.3298     -191.15072      0.98812314     24546.056    
    998900   300.82582     -8932.2178      1455.3516     -7476.8663      485.86252      0.98812314     24546.056    
    999000   298.49526     -8919.1569      1444.0767     -7475.0802     -241.85134      0.98812314     24546.056    
    999100   295.17668     -8904.7684      1428.0219     -7476.7466      6.5479064      0.98812314     24546.056    
    999200   300.82631     -8933.1803      1455.354      -7477.8264     -960.72281      0.98812314     24546.056    
    999300   291.54721     -8891.1303      1410.463      -7480.6673     -706.68285      0.98812314     24546.056    
    999400   297.25811     -8919.1262      1438.0915     -7481.0346     -477.29624      0.98812314     24546.056    
    999500   300.62803     -8935.7429      1454.3947     -7481.3481     -807.71556      0.98812314     24546.056    
    999600   300.80441     -8936.9856      1455.2481     -7481.7375     -775.30145      0.98812314     24546.056    
    999700   303.60414     -8950.8805      1468.7927     -7482.0878     -714.96976      0.98812314     24546.056    
    999800   299.70572     -8934.3631      1449.9327     -7484.4304     -800.25679      0.98812314     24546.056    
    999900   287.69305     -8879.0056      1391.8172     -7487.1884     -544.47942      0.98812314     24546.056    
   1000000   295.94632     -8917.4974      1431.7453     -7485.7521     -611.447        0.98812314     24546.056    
Loop time of 2391.37 on 8 procs for 1000000 steps with 2424 atoms

Performance: 18.065 ns/day, 1.329 hours/ns, 418.171 timesteps/s, 1.014 Matom-step/s
99.7% CPU use with 8 MPI tasks x 1 OpenMP threads

MPI task timing breakdown:
Section |  min time  |  avg time  |  max time  |%varavg| %total
---------------------------------------------------------------
Pair    | 1595       | 1668.9     | 1727       | 108.5 | 69.79
Bond    | 0.38066    | 2.595      | 9.9661     | 195.8 |  0.11
Kspace  | 373.24     | 437.33     | 501.08     | 208.8 | 18.29
Neigh   | 66.257     | 66.301     | 66.416     |   0.6 |  2.77
Comm    | 116.76     | 119.04     | 130.32     |  39.3 |  4.98
Output  | 2.1195     | 2.2502     | 2.6693     |  11.0 |  0.09
Modify  | 87.523     | 87.793     | 88.312     |   2.7 |  3.67
Other   |            | 7.194      |            |       |  0.30

Nlocal:            303 ave         311 max         293 min
Histogram: 1 0 1 0 0 3 0 1 1 1
Nghost:        5349.75 ave        5362 max        5326 min
Histogram: 1 0 1 0 0 1 0 1 1 3
Neighs:         108141 ave      110612 max      104223 min
Histogram: 1 1 0 0 0 1 0 3 0 2

Total # of neighbors = 865128
Ave neighs/atom = 356.90099
Ave special neighs/atom = 2.0742574
Neighbor list builds = 22749
Dangerous builds = 0

# ---------------------------------------------------------
# 14. Save final structure
# ---------------------------------------------------------
write_data      nvt_prod_long_final.data
System init for write_data ...
PPPM initialization ...
  using 12-bit tables for long-range coulomb (src/src/kspace.cpp:342)
  G vector (1/distance) = 0.26366352
  grid = 15 15 15
  stencil order = 5
  estimated absolute RMS force accuracy = 0.031845615
  estimated relative force accuracy = 9.5902122e-05
  using double precision FFTW3
  3d grid and FFT values/proc = 2744 512
Generated 325 of 325 mixed pair_coeff terms from geometric mixing rule
Total wall time: 0:39:51
