LAMMPS (2 Aug 2023 - Update 3)
  using 1 OpenMP thread(s) per MPI task
# =========================================================
# NVT direct protocol — CONTROLLED comparison (item 1.2.1)
# System: caffeine + SPC/E water
# Starting point: nvt_short_final.data
#   (output of the short NVT ramp 150->298 K)
#
# DESIGN: This script differs from the full protocol ONLY
# in the absence of the NPT equilibration step.
# ALL other parameters are IDENTICAL to the full protocol:
#   - Same Tdamp = 200 fs
#   - Same initial structure (post-NVT-short)
#   - Same timestep (0.5 fs)
#   - Same SHAKE settings
#   - Same run length (200 000 steps / 100 ps for comparison)
#
# Required for: item 1.2.1 (RBEF revision R1)
# =========================================================

include         in.common
units real
atom_style full
boundary p p p

pair_style      lj/cut/coul/long 10.0 10.0
pair_modify     mix geometric tail no
bond_style      harmonic
angle_style     harmonic
dihedral_style  opls
improper_style  cvff
kspace_style    pppm 1.0e-4
special_bonds   lj/coul 0.0 0.0 0.5
neighbor        2.0 bin
neigh_modify    every 1 delay 0 check yes
read_data       nvt_short_final.data
Reading data file ...
  orthogonal box = (-0.0005 0.023501 -0.026) to (29.9995 30.023501 29.974)
  2 by 2 by 2 MPI processor grid
  reading atoms ...
  2424 atoms
  reading velocities ...
  2424 velocities
  scanning bonds ...
  2 = max bonds/atom
  scanning angles ...
  6 = max angles/atom
  scanning dihedrals ...
  7 = max dihedrals/atom
  scanning impropers ...
  4 = max impropers/atom
  reading bonds ...
  1625 bonds
  reading angles ...
  843 angles
  reading dihedrals ...
  54 dihedrals
  reading impropers ...
  14 impropers
Finding 1-2 1-3 1-4 neighbors ...
  special bond factors lj:    0        0        0.5     
  special bond factors coul:  0        0        0.5     
     4 = max # of 1-2 neighbors
     7 = max # of 1-3 neighbors
    16 = max # of 1-4 neighbors
    16 = max # of special neighbors
  special bonds CPU = 0.000 seconds
  read_data CPU = 0.058 seconds

# Groups
group           caffeine  molecule 1
24 atoms in group caffeine
group           water     type 25 26
2400 atoms in group water
group           waterO    type 25
800 atoms in group waterO

# SHAKE — same as full protocol
fix             fxShake water shake 1.0e-4 200 0 b 26 a 44
Finding SHAKE clusters ...
       0 = # of size 2 clusters
       0 = # of size 3 clusters
       0 = # of size 4 clusters
     800 = # of frozen angles
  find clusters CPU = 0.000 seconds

reset_timestep  0
timestep        0.5

# NVT — Nose-Hoover, Tdamp = 200 fs (IDENTICAL to full protocol)
fix             fxNVT all nvt temp 298.0 298.0 200.0

# Thermo output
thermo          100
thermo_style    custom step temp pe ke etotal press density vol
thermo_modify   flush yes

# Trajectory
dump            d1 all custom 1000 nvt_direct_controlled.lammpstrj                 id mol type q x y z vx vy vz
dump_modify     d1 sort id

restart         50000 nvt_direct.restart1 nvt_direct.restart2

# MSD
compute         cMSDwatO waterO msd com yes
fix             fxMSDwatO waterO ave/time 100 10 1000                 c_cMSDwatO[4] file msd_waterO_direct.dat

variable        vTemp  equal temp
variable        vPress equal press
variable        vDens  equal density
variable        vVol   equal vol

fix             fxAvg all ave/time 100 10 1000                 v_vTemp v_vPress v_vDens v_vVol                 file thermo_avg_direct.dat mode scalar

# Run: 200 000 steps = 100 ps (same as original short production)
run             200000
PPPM initialization ...
WARNING: System is not charge neutral, net charge = -0.0002 (src/src/kspace.cpp:327)
  using 12-bit tables for long-range coulomb (src/src/kspace.cpp:342)
  G vector (1/distance) = 0.26644127
  grid = 16 16 16
  stencil order = 5
  estimated absolute RMS force accuracy = 0.026206477
  estimated relative force accuracy = 7.8920029e-05
  using double precision FFTW3
  3d grid and FFT values/proc = 3375 512
Generated 325 of 325 mixed pair_coeff terms from geometric mixing rule
Neighbor list info ...
  update: every = 1 steps, delay = 0 steps, check = yes
  max neighbors/atom: 2000, page size: 100000
  master list distance cutoff = 12
  ghost atom cutoff = 12
  binsize = 6, bins = 5 5 5
  1 neighbor lists, perpetual/occasional/extra = 1 0 0
  (1) pair lj/cut/coul/long, perpetual
      attributes: half, newton on
      pair build: half/bin/newton
      stencil: half/bin/3d
      bin: standard
Per MPI rank memory allocation (min/avg/max) = 14.32 | 14.54 | 14.9 Mbytes
   Step          Temp          PotEng         KinEng         TotEng         Press         Density         Volume    
         0   302.65722     -8725.794       1464.2116     -7261.5824     -1622.7702      0.89831576     27000        
       100   299.76243     -8712.408       1450.2071     -7262.201      -1541.4952      0.89831576     27000        
       200   301.89044     -8727.6846      1460.5021     -7267.1825     -1229.0302      0.89831576     27000        
       300   301.97095     -8736.8512      1460.8916     -7275.9596     -1557.0987      0.89831576     27000        
       400   299.08948     -8735.5131      1446.9515     -7288.5616     -1532.1067      0.89831576     27000        
       500   291.33788     -8712.2336      1409.4503     -7302.7833     -1122.4302      0.89831576     27000        
       600   299.77036     -8767.2862      1450.2455     -7317.0407     -975.28461      0.89831576     27000        
       700   301.33525     -8790.8147      1457.8161     -7332.9985     -1272.6508      0.89831576     27000        
       800   300.79594     -8803.1763      1455.2071     -7347.9693     -1514.4846      0.89831576     27000        
       900   288.73801     -8760.3456      1396.8726     -7363.4731     -1128.3499      0.89831576     27000        
      1000   291.55881     -8783.6285      1410.5192     -7373.1093     -1664.1041      0.89831576     27000        
      1100   291.91618     -8790.1203      1412.248      -7377.8723     -1192.1983      0.89831576     27000        
      1200   292.11868     -8792.5321      1413.2277     -7379.3044     -1386.1006      0.89831576     27000        
      1300   290.7168      -8784.9782      1406.4457     -7378.5326     -1303.5784      0.89831576     27000        
      1400   288.65933     -8773.1584      1396.4919     -7376.6665     -937.12034      0.89831576     27000        
      1500   298.33232     -8816.1623      1443.2884     -7372.8739     -1203.2195      0.89831576     27000        
      1600   299.82654     -8820.3174      1450.5173     -7369.8001     -1530.113       0.89831576     27000        
      1700   301.00228     -8824.7296      1456.2053     -7368.5243     -1261.1393      0.89831576     27000        
      1800   286.76499     -8754.7941      1387.3274     -7367.4668     -964.69645      0.89831576     27000        
      1900   294.77524     -8790.1429      1426.0798     -7364.0631     -1458.794       0.89831576     27000        
      2000   300.9678      -8815.1549      1456.0385     -7359.1164     -1402.4572      0.89831576     27000        
      2100   298.65409     -8799.5096      1444.8451     -7354.6645     -1598.5443      0.89831576     27000        
      2200   293.58589     -8767.6524      1420.3259     -7347.3265     -1571.4217      0.89831576     27000        
      2300   303.1226      -8807.0981      1466.4631     -7340.635      -1424.3868      0.89831576     27000        
      2400   302.41595     -8798.5507      1463.0444     -7335.5062     -1213.2353      0.89831576     27000        
      2500   299.76211     -8784.9277      1450.2055     -7334.7222     -520.89771      0.89831576     27000        
      2600   306.90555     -8822.933       1484.7644     -7338.1686     -1090.0083      0.89831576     27000        
      2700   305.10604     -8823.7066      1476.0587     -7347.6479     -1389.6283      0.89831576     27000        
      2800   300.91348     -8819.8539      1455.7757     -7364.0782     -1404.7679      0.89831576     27000        
      2900   306.26264     -8868.1697      1481.6542     -7386.5156     -1420.9373      0.89831576     27000        
      3000   294.54676     -8834.0439      1424.9744     -7409.0695     -1512.109       0.89831576     27000        
      3100   290.37742     -8832.7471      1404.8038     -7427.9433     -1858.5671      0.89831576     27000        
      3200   296.41561     -8872.6168      1434.0157     -7438.6012     -2182.7606      0.89831576     27000        
      3300   286.90728     -8830.7467      1388.0157     -7442.7309     -1571.084       0.89831576     27000        
      3400   292.85563     -8858.8097      1416.793      -7442.0167     -1828.2585      0.89831576     27000        
      3500   296.76254     -8872.4713      1435.694      -7436.7773     -1599.2872      0.89831576     27000        
      3600   299.61708     -8880.964       1449.5039     -7431.4601     -1211.9865      0.89831576     27000        
      3700   303.14076     -8893.9213      1466.551      -7427.3703     -1982.7412      0.89831576     27000        
      3800   292.25151     -8837.5855      1413.8703     -7423.7151     -1924.2374      0.89831576     27000        
      3900   284.00899     -8791.6779      1373.9942     -7417.6837     -1071.5825      0.89831576     27000        
      4000   289.94028     -8807.9022      1402.689      -7405.2132     -1715.0906      0.89831576     27000        
      4100   307.70127     -8873.9678      1488.614      -7385.3537     -1261.5107      0.89831576     27000        
      4200   299.42604     -8815.546       1448.5797     -7366.9664     -799.1869       0.89831576     27000        
      4300   299.66449     -8802.5945      1449.7333     -7352.8612     -1448.2278      0.89831576     27000        
      4400   294.62018     -8769.5038      1425.3296     -7344.1742     -1585.3881      0.89831576     27000        
      4500   298.21665     -8780.649       1442.7288     -7337.9202     -1685.712       0.89831576     27000        
      4600   304.87215     -8808.8038      1474.9271     -7333.8767     -1434.2991      0.89831576     27000        
      4700   305.53782     -8811.746       1478.1476     -7333.5984     -1417.8306      0.89831576     27000        
      4800   300.69162     -8790.2709      1454.7024     -7335.5685     -1124.3282      0.89831576     27000        
      4900   298.49323     -8782.1408      1444.0669     -7338.0739     -1285.8545      0.89831576     27000        
      5000   300.2312      -8794.9342      1452.4749     -7342.4593     -1503.6911      0.89831576     27000        
      5100   301.46426     -8805.2698      1458.4403     -7346.8295     -1932.6057      0.89831576     27000        
      5200   296.99651     -8789.1564      1436.826      -7352.3304     -1407.7644      0.89831576     27000        
      5300   302.27652     -8822.0924      1462.3699     -7359.7225     -1695.8471      0.89831576     27000        
      5400   290.53294     -8772.4815      1405.5561     -7366.9253     -2037.9762      0.89831576     27000        
      5500   287.69521     -8763.7814      1391.8276     -7371.9538     -2190.5451      0.89831576     27000        
      5600   294.80071     -8799.8676      1426.203      -7373.6646     -2260.3952      0.89831576     27000        
      5700   291.88004     -8786.0124      1412.0732     -7373.9392     -2409.035       0.89831576     27000        
      5800   290.77078     -8777.6825      1406.7068     -7370.9757     -1903.0203      0.89831576     27000        
      5900   295.37781     -8792.1229      1428.9949     -7363.128      -1360.9804      0.89831576     27000        
      6000   295.66409     -8779.2119      1430.3799     -7348.832      -986.43124      0.89831576     27000        
      6100   300.30923     -8782.8967      1452.8524     -7330.0443     -558.29015      0.89831576     27000        
      6200   307.30731     -8797.4387      1486.7081     -7310.7306     -1131.0708      0.89831576     27000        
      6300   299.29075     -8743.5401      1447.9252     -7295.6149     -1243.8981      0.89831576     27000        
      6400   305.71976     -8764.7674      1479.0278     -7285.7396     -1486.6632      0.89831576     27000        
      6500   307.47373     -8768.5829      1487.5132     -7281.0696     -1421.6904      0.89831576     27000        
      6600   306.07487     -8762.2236      1480.7458     -7281.4779     -1219.6107      0.89831576     27000        
      6700   304.55366     -8759.9709      1473.3863     -7286.5846     -1792.872       0.89831576     27000        
      6800   305.85724     -8776.122       1479.6929     -7296.4291     -1982.2718      0.89831576     27000        
      6900   302.39145     -8772.8818      1462.9259     -7309.9559     -1700.8696      0.89831576     27000        
      7000   299.38626     -8774.1113      1448.3872     -7325.7241     -1414.0506      0.89831576     27000        
      7100   299.02411     -8790.2912      1446.6352     -7343.656      -1143.1008      0.89831576     27000        
      7200   288.17431     -8752.3272      1394.1454     -7358.1818     -1191.8916      0.89831576     27000        
      7300   296.43859     -8799.9003      1434.1268     -7365.7735     -1620.0715      0.89831576     27000        
      7400   292.59254     -8784.9183      1415.5202     -7369.3981     -1660.1944      0.89831576     27000        
      7500   292.27763     -8784.1036      1413.9967     -7370.1069     -1703.7296      0.89831576     27000        
      7600   293.20542     -8788.0324      1418.4852     -7369.5471     -1205.0714      0.89831576     27000        
      7700   293.99654     -8790.3652      1422.3125     -7368.0527     -883.48555      0.89831576     27000        
      7800   298.88116     -8811.0411      1445.9436     -7365.0974     -1274.4481      0.89831576     27000        
      7900   297.2181      -8799.1824      1437.898      -7361.2844     -1134.9206      0.89831576     27000        
      8000   297.5705      -8797.5345      1439.6029     -7357.9316     -893.7381       0.89831576     27000        
      8100   301.48505     -8813.459       1458.5409     -7354.9181     -1131.5573      0.89831576     27000        
      8200   296.57603     -8790.0426      1434.7918     -7355.2509     -1664.1505      0.89831576     27000        
      8300   297.95608     -8798.7548      1441.4682     -7357.2866     -1559.2933      0.89831576     27000        
      8400   300.88955     -8815.838       1455.6599     -7360.1781     -2001.4442      0.89831576     27000        
      8500   292.69727     -8781.5863      1416.0269     -7365.5595     -722.64521      0.89831576     27000        
      8600   303.82449     -8841.7891      1469.8588     -7371.9303     -1077.4732      0.89831576     27000        
      8700   294.39328     -8807.6982      1424.2319     -7383.4663     -1263.4019      0.89831576     27000        
      8800   303.93926     -8872.0711      1470.414      -7401.6571     -1296.8934      0.89831576     27000        
      8900   301.61715     -8884.4787      1459.1799     -7425.2988     -1668.3016      0.89831576     27000        
      9000   298.15518     -8890.2316      1442.4315     -7447.8001     -1923.1927      0.89831576     27000        
      9100   293.3857      -8882.437       1419.3574     -7463.0796     -1698.75        0.89831576     27000        
      9200   293.43199     -8889.5304      1419.5813     -7469.9491     -1854.8357      0.89831576     27000        
      9300   295.23007     -8900.6604      1428.2802     -7472.3802     -1836.4017      0.89831576     27000        
      9400   289.01875     -8870.415       1398.2307     -7472.1843     -1160.747       0.89831576     27000        
      9500   290.87162     -8875.7393      1407.1946     -7468.5447     -1097.7449      0.89831576     27000        
      9600   299.6634      -8912.3691      1449.728      -7462.6411     -1766.8509      0.89831576     27000        
      9700   298.24427     -8900.1794      1442.8625     -7457.3169     -1502.7069      0.89831576     27000        
      9800   289.33353     -8849.4278      1399.7536     -7449.6742     -1368.8478      0.89831576     27000        
      9900   296.24029     -8870.9797      1433.1675     -7437.8122     -1760.2364      0.89831576     27000        
     10000   290.25203     -8825.0972      1404.1972     -7420.9        -1269.6466      0.89831576     27000        
     10100   302.08844     -8861.6546      1461.46       -7400.1947     -1550.2756      0.89831576     27000        
     10200   301.3863      -8839.2322      1458.0631     -7381.1691     -1155.7055      0.89831576     27000        
     10300   302.01376     -8829.5902      1461.0987     -7368.4915     -551.62508      0.89831576     27000        
     10400   298.43457     -8806.6336      1443.7831     -7362.8504     -1122.7045      0.89831576     27000        
     10500   314.91074     -8884.7537      1523.4924     -7361.2613     -1170.1584      0.89831576     27000        
     10600   302.36046     -8826.4252      1462.776      -7363.6492     -1361.6536      0.89831576     27000        
     10700   304.37656     -8839.9872      1472.5296     -7367.4577     -1882.0711      0.89831576     27000        
     10800   298.89515     -8819.052       1446.0113     -7373.0407     -1767.3442      0.89831576     27000        
     10900   292.33594     -8791.6593      1414.2788     -7377.3805     -2184.1773      0.89831576     27000        
     11000   289.65954     -8778.4344      1401.3308     -7377.1037     -1688.2715      0.89831576     27000        
     11100   291.56156     -8784.1841      1410.5325     -7373.6517     -1125.6525      0.89831576     27000        
     11200   294.88163     -8792.5214      1426.5945     -7365.9269     -1132.2897      0.89831576     27000        
     11300   294.37554     -8780.0825      1424.1461     -7355.9364     -1120.6961      0.89831576     27000        
     11400   293.11694     -8762.7114      1418.0572     -7344.6542     -1422.1166      0.89831576     27000        
     11500   296.02717     -8762.1579      1432.1364     -7330.0214     -1702.0293      0.89831576     27000        
     11600   298.28394     -8757.3468      1443.0544     -7314.2924     -1198.0789      0.89831576     27000        
     11700   298.49789     -8744.1382      1444.0894     -7300.0488     -744.95528      0.89831576     27000        
     11800   307.14475     -8776.9232      1485.9217     -7291.0015     -1677.8706      0.89831576     27000        
     11900   302.70059     -8753.39        1464.4215     -7288.9685     -1632.958       0.89831576     27000        
     12000   300.71895     -8746.7845      1454.8346     -7291.9499     -1516.1001      0.89831576     27000        
     12100   297.18863     -8732.9491      1437.7554     -7295.1937     -1750.8318      0.89831576     27000        
     12200   305.15574     -8776.0439      1476.2992     -7299.7447     -1237.3721      0.89831576     27000        
     12300   298.39565     -8751.0802      1443.5948     -7307.4854     -549.21404      0.89831576     27000        
     12400   301.35818     -8775.22        1457.9271     -7317.2929     -607.93813      0.89831576     27000        
     12500   311.53664     -8838.5786      1507.169      -7331.4096     -1079.298       0.89831576     27000        
     12600   295.78524     -8783.1345      1430.966      -7352.1684     -1016.6526      0.89831576     27000        
     12700   303.80365     -8846.0844      1469.7579     -7376.3265     -899.52689      0.89831576     27000        
     12800   295.69163     -8829.2858      1430.5132     -7398.7726     -621.01734      0.89831576     27000        
     12900   306.24449     -8894.5791      1481.5663     -7413.0128     -1869.2398      0.89831576     27000        
     13000   291.82519     -8830.077       1411.8079     -7418.2691     -1752.8179      0.89831576     27000        
     13100   297.69416     -8858.0777      1440.2011     -7417.8765     -2214.1109      0.89831576     27000        
     13200   292.25284     -8828.8032      1413.8768     -7414.9264     -2008.9776      0.89831576     27000        
     13300   290.94548     -8817.474       1407.552      -7409.922      -1557.2652      0.89831576     27000        
     13400   284.66235     -8775.8769      1377.1551     -7398.7218     -2102.6169      0.89831576     27000        
     13500   299.80224     -8833.6145      1450.3997     -7383.2149     -1952.739       0.89831576     27000        
     13600   301.92224     -8828.5007      1460.6559     -7367.8447     -1179.3612      0.89831576     27000        
     13700   293.91517     -8777.2477      1421.9189     -7355.3288     -1053.8516      0.89831576     27000        
     13800   302.19279     -8805.5714      1461.9648     -7343.6066     -1131.9271      0.89831576     27000        
     13900   302.02646     -8794.1816      1461.1602     -7333.0214     -1645.8101      0.89831576     27000        
     14000   303.84721     -8792.7809      1469.9686     -7322.8122     -1421.5375      0.89831576     27000        
     14100   289.33536     -8714.5268      1399.7624     -7314.7643     -1375.8534      0.89831576     27000        
     14200   296.98452     -8742.7996      1436.7679     -7306.0316     -1523.9276      0.89831576     27000        
     14300   303.2663      -8764.0097      1467.1583     -7296.8514     -1278.1954      0.89831576     27000        
     14400   302.04836     -8751.1508      1461.2661     -7289.8847     -1433.8253      0.89831576     27000        
     14500   298.91718     -8731.4508      1446.1179     -7285.3329     -1504.8648      0.89831576     27000        
     14600   295.76273     -8711.9555      1430.8571     -7281.0984     -1113.149       0.89831576     27000        
     14700   295.11089     -8704.062       1427.7036     -7276.3584     -1598.8664      0.89831576     27000        
     14800   304.38315     -8742.2597      1472.5614     -7269.6983     -2009.9843      0.89831576     27000        
     14900   304.95715     -8736.834       1475.3384     -7261.4956     -1438.9779      0.89831576     27000        
     15000   300.12331     -8704.7632      1451.953      -7252.8102     -1623.3195      0.89831576     27000        
     15100   306.88638     -8731.5414      1484.6717     -7246.8697     -1305.4456      0.89831576     27000        
     15200   298.4128      -8685.9397      1443.6778     -7242.2619     -855.03547      0.89831576     27000        
     15300   309.39365     -8736.4048      1496.8015     -7239.6033     -1854.4294      0.89831576     27000        
     15400   308.97578     -8736.2236      1494.7799     -7241.4437     -2042.1648      0.89831576     27000        
     15500   300.57758     -8702.4397      1454.1507     -7248.289      -1680.8444      0.89831576     27000        
     15600   300.38558     -8711.8361      1453.2218     -7258.6143     -1664.5595      0.89831576     27000        
     15700   306.77874     -8758.2056      1484.151      -7274.0547     -1958.29        0.89831576     27000        
     15800   294.26844     -8715.701       1423.628      -7292.073      -1205.3015      0.89831576     27000        
     15900   294.61491     -8733.2519      1425.3041     -7307.9478     -1387.9247      0.89831576     27000        
     16000   301.87723     -8781.2738      1460.4382     -7320.8357     -1647.9136      0.89831576     27000        
     16100   299.86859     -8781.4062      1450.7207     -7330.6856     -1893.1972      0.89831576     27000        
     16200   285.53744     -8717.6179      1381.3887     -7336.2293     -1399.9091      0.89831576     27000        
     16300   291.77911     -8746.8661      1411.5849     -7335.2812     -1513.7666      0.89831576     27000        
     16400   292.91019     -8745.7827      1417.057      -7328.7257     -1589.542       0.89831576     27000        
     16500   293.5738      -8738.1145      1420.2674     -7317.8472     -1778.4015      0.89831576     27000        
     16600   290.57727     -8710.1464      1405.7706     -7304.3758     -1627.7282      0.89831576     27000        
     16700   289.9966      -8691.2943      1402.9614     -7288.3329     -1185.6167      0.89831576     27000        
     16800   297.12994     -8708.9376      1437.4715     -7271.4661     -1650.9812      0.89831576     27000        
     16900   298.82916     -8704.7667      1445.6921     -7259.0746     -1640.0517      0.89831576     27000        
     17000   294.6551      -8676.7994      1425.4986     -7251.3009     -1626.5983      0.89831576     27000        
     17100   299.26022     -8694.0425      1447.7775     -7246.265      -1813.694       0.89831576     27000        
     17200   299.81814     -8694.7807      1450.4766     -7244.3041     -1787.342       0.89831576     27000        
     17300   303.25156     -8711.4833      1467.087      -7244.3963     -1989.1962      0.89831576     27000        
     17400   293.31627     -8664.7472      1419.0215     -7245.7257     -2339.8292      0.89831576     27000        
     17500   298.19855     -8690.4923      1442.6413     -7247.8511     -2307.4772      0.89831576     27000        
     17600   306.38693     -8732.3774      1482.2555     -7250.122      -1386.0807      0.89831576     27000        
     17700   299.03573     -8702.224       1446.6914     -7255.5326     -1094.2068      0.89831576     27000        
     17800   303.6745      -8734.1657      1469.1331     -7265.0325     -1311.2873      0.89831576     27000        
     17900   297.79687     -8716.2457      1440.698      -7275.5477     -1156.4193      0.89831576     27000        
     18000   298.61926     -8731.8258      1444.6766     -7287.1492     -1180.0694      0.89831576     27000        
     18100   293.91461     -8720.9547      1421.9162     -7299.0385     -990.40737      0.89831576     27000        
     18200   295.46643     -8741.2441      1429.4236     -7311.8205     -1370.5358      0.89831576     27000        
     18300   285.07375     -8704.6682      1379.1454     -7325.5228     -1510.4038      0.89831576     27000        
     18400   290.54252     -8742.2235      1405.6025     -7336.621      -1911.0926      0.89831576     27000        
     18500   293.24195     -8763.5663      1418.6619     -7344.9043     -2016.9922      0.89831576     27000        
     18600   299.45839     -8799.3608      1448.7362     -7350.6246     -1645.0368      0.89831576     27000        
     18700   297.97671     -8797.005       1441.568      -7355.4369     -1449.164       0.89831576     27000        
     18800   287.83259     -8754.1691      1392.4922     -7361.6769     -1079.8361      0.89831576     27000        
     18900   292.12801     -8781.3308      1413.2729     -7368.0579     -744.58826      0.89831576     27000        
     19000   289.30242     -8772.8455      1399.6031     -7373.2424     -758.77914      0.89831576     27000        
     19100   299.33604     -8822.5466      1448.1443     -7374.4023     -1060.8972      0.89831576     27000        
     19200   290.99856     -8778.7115      1407.8088     -7370.9027     -1827.6466      0.89831576     27000        
     19300   290.82112     -8769.4082      1406.9503     -7362.4579     -1232.0491      0.89831576     27000        
     19400   298.82435     -8796.8671      1445.6688     -7351.1983     -1003.1755      0.89831576     27000        
     19500   300.21378     -8789.9759      1452.3906     -7337.5853     -1465.631       0.89831576     27000        
     19600   301.5213      -8781.5127      1458.7162     -7322.7965     -1632.1843      0.89831576     27000        
     19700   296.95378     -8745.0193      1436.6193     -7308.4001     -1902.307       0.89831576     27000        
     19800   298.57414     -8738.9105      1444.4583     -7294.4522     -2093.1621      0.89831576     27000        
     19900   306.32083     -8765.2872      1481.9357     -7283.3515     -2130.5424      0.89831576     27000        
     20000   306.65532     -8760.717       1483.5539     -7277.1631     -1498.9263      0.89831576     27000        
     20100   304.22632     -8747.9194      1471.8027     -7276.1167     -1324.8312      0.89831576     27000        
     20200   307.10128     -8765.4628      1485.7114     -7279.7515     -2251.4221      0.89831576     27000        
     20300   303.10997     -8752.0564      1466.402      -7285.6544     -1928.7924      0.89831576     27000        
     20400   297.66612     -8733.157       1440.0655     -7293.0916     -1201.7223      0.89831576     27000        
     20500   297.36858     -8741.5019      1438.626      -7302.8759     -1611.6144      0.89831576     27000        
     20600   296.51938     -8750.23        1434.5177     -7315.7123     -1970.8484      0.89831576     27000        
     20700   299.64311     -8781.8402      1449.6298     -7332.2103     -2181.0283      0.89831576     27000        
     20800   293.22412     -8768.7299      1418.5757     -7350.1543     -2134.8168      0.89831576     27000        
     20900   300.38902     -8818.2181      1453.2385     -7364.9796     -1774.7052      0.89831576     27000        
     21000   293.29121     -8797.2201      1418.9003     -7378.3198     -2053.6414      0.89831576     27000        
     21100   286.71524     -8772.2567      1387.0867     -7385.17       -1929.8556      0.89831576     27000        
     21200   294.80203     -8811.878       1426.2094     -7385.6686     -1920.9609      0.89831576     27000        
     21300   287.59632     -8775.2807      1391.3492     -7383.9315     -1530.078       0.89831576     27000        
     21400   291.96259     -8791.3665      1412.4726     -7378.8939     -1550.9381      0.89831576     27000        
     21500   301.45807     -8831.4687      1458.4103     -7373.0584     -1675.291       0.89831576     27000        
     21600   287.82874     -8758.3751      1392.4736     -7365.9015     -1746.1115      0.89831576     27000        
     21700   290.8919      -8765.2985      1407.2927     -7358.0058     -1660.7631      0.89831576     27000        
     21800   293.52101     -8768.2575      1420.012      -7348.2455     -1838.199       0.89831576     27000        
     21900   296.36656     -8772.3614      1433.7784     -7338.583      -1881.2092      0.89831576     27000        
     22000   301.82313     -8789.9866      1460.1765     -7329.8101     -1653.6755      0.89831576     27000        
     22100   291.062       -8730.7312      1408.1157     -7322.6156     -1075.3725      0.89831576     27000        
     22200   302.82265     -8780.8022      1465.012      -7315.7902     -1285.471       0.89831576     27000        
     22300   303.01541     -8776.1762      1465.9445     -7310.2317     -2333.42        0.89831576     27000        
     22400   299.6849      -8753.934       1449.832      -7304.102      -2038.6748      0.89831576     27000        
     22500   295.16103     -8727.0932      1427.9462     -7299.147      -1498.6856      0.89831576     27000        
     22600   304.03837     -8765.9501      1470.8935     -7295.0566     -2030.5832      0.89831576     27000        
     22700   292.09185     -8706.0595      1413.0979     -7292.9616     -1348.6317      0.89831576     27000        
     22800   289.97988     -8691.0405      1402.8805     -7288.16       -1274.1253      0.89831576     27000        
     22900   296.84279     -8717.3763      1436.0823     -7281.294      -1501.13        0.89831576     27000        
     23000   293.27857     -8690.9053      1418.8391     -7272.0661     -2046.1057      0.89831576     27000        
     23100   303.78603     -8729.0569      1469.6727     -7259.3842     -1337.2417      0.89831576     27000        
     23200   301.15878     -8700.1935      1456.9624     -7243.2311     -1271.664       0.89831576     27000        
     23300   303.47552     -8693.6753      1468.1705     -7225.5048     -1247.6814      0.89831576     27000        
     23400   305.04025     -8684.1825      1475.7404     -7208.4421     -917.21353      0.89831576     27000        
     23500   307.30504     -8682.6873      1486.6971     -7195.9902     -907.51676      0.89831576     27000        
     23600   308.93236     -8684.5951      1494.5699     -7190.0253     -1122.3744      0.89831576     27000        
     23700   305.21846     -8667.6558      1476.6026     -7191.0532     -1092.5734      0.89831576     27000        
     23800   307.11509     -8686.6961      1485.7782     -7200.9179     -1698.5408      0.89831576     27000        
     23900   302.85945     -8682.2982      1465.19       -7217.1082     -1559.3528      0.89831576     27000        
     24000   290.07227     -8641.0787      1403.3275     -7237.7512     -1478.7029      0.89831576     27000        
     24100   301.91884     -8718.965       1460.6395     -7258.3255     -1956.8738      0.89831576     27000        
     24200   292.43636     -8689.9698      1414.7646     -7275.2052     -1282.6931      0.89831576     27000        
     24300   300.07946     -8735.774       1451.7408     -7284.0332     -1722.6289      0.89831576     27000        
     24400   286.50794     -8674.6074      1386.0838     -7288.5236     -1254.7261      0.89831576     27000        
     24500   306.26356     -8772.1828      1481.6586     -7290.5242     -1401.5113      0.89831576     27000        
     24600   293.88095     -8713.61        1421.7534     -7291.8566     -825.88683      0.89831576     27000        
     24700   303.89001     -8763.6638      1470.1757     -7293.4881     -1736.1784      0.89831576     27000        
     24800   292.82035     -8713.8168      1416.6223     -7297.1945     -1315.6667      0.89831576     27000        
     24900   298.64555     -8742.6422      1444.8038     -7297.8384     -1207.0487      0.89831576     27000        
     25000   299.7966      -8748.1559      1450.3724     -7297.7834     -1930.3722      0.89831576     27000        
     25100   304.37563     -8770.9347      1472.5251     -7298.4096     -1617.1795      0.89831576     27000        
     25200   295.69083     -8731.6717      1430.5093     -7301.1624     -1001.0029      0.89831576     27000        
     25300   304.93047     -8781.2215      1475.2093     -7306.0122     -1219.5049      0.89831576     27000        
     25400   306.14126     -8796.6507      1481.0669     -7315.5838     -1504.322       0.89831576     27000        
     25500   297.96385     -8773.1457      1441.5058     -7331.6398     -1624.4405      0.89831576     27000        
     25600   289.06341     -8749.931       1398.4468     -7351.4843     -1892.9423      0.89831576     27000        
     25700   282.4168      -8736.175       1366.2914     -7369.8835     -1406.6835      0.89831576     27000        
     25800   294.0808      -8806.0071      1422.7202     -7383.2869     -1746.0338      0.89831576     27000        
     25900   288.28873     -8785.9268      1394.699      -7391.2278     -1796.6085      0.89831576     27000        
     26000   293.23426     -8814.0447      1418.6247     -7395.42       -2264.8405      0.89831576     27000        
     26100   287.86737     -8787.895       1392.6605     -7395.2345     -1606.8094      0.89831576     27000        
     26200   294.65189     -8816.1362      1425.483      -7390.6532     -1252.5357      0.89831576     27000        
     26300   291.48984     -8791.8025      1410.1855     -7381.617      -907.01191      0.89831576     27000        
     26400   296.24001     -8799.452       1433.1661     -7366.2859     -2342.5548      0.89831576     27000        
     26500   292.75308     -8762.9927      1416.2969     -7346.6958     -1977.4844      0.89831576     27000        
     26600   287.67996     -8715.6404      1391.7539     -7323.8865     -1526.4431      0.89831576     27000        
     26700   299.77208     -8756.1507      1450.2538     -7305.897      -2001.1333      0.89831576     27000        
     26800   298.79177     -8741.4572      1445.5112     -7295.946      -1942.9078      0.89831576     27000        
     26900   290.11154     -8694.7945      1403.5175     -7291.277      -1515.5092      0.89831576     27000        
     27000   302.04702     -8746.3591      1461.2596     -7285.0995     -1692.3446      0.89831576     27000        
     27100   301.85837     -8742.3319      1460.347      -7281.9849     -1661.6479      0.89831576     27000        
     27200   293.08067     -8698.1422      1417.8817     -7280.2605     -1709.2805      0.89831576     27000        
     27300   303.0215      -8744.5675      1465.974      -7278.5936     -1849.3363      0.89831576     27000        
     27400   292.92214     -8693.2283      1417.1148     -7276.1135     -1679.4508      0.89831576     27000        
     27500   303.86345     -8744.3376      1470.0472     -7274.2904     -1423.1017      0.89831576     27000        
     27600   298.59064     -8721.0022      1444.5381     -7276.4641     -1478.773       0.89831576     27000        
     27700   297.95223     -8722.6217      1441.4496     -7281.1721     -1690.5739      0.89831576     27000        
     27800   294.74687     -8712.7636      1425.9425     -7286.8211     -1779.6908      0.89831576     27000        
     27900   299.05127     -8737.9923      1446.7666     -7291.2257     -1426.2575      0.89831576     27000        
     28000   299.73024     -8745.3079      1450.0514     -7295.2565     -1812.8053      0.89831576     27000        
     28100   296.6483      -8735.8727      1435.1414     -7300.7313     -1454.4155      0.89831576     27000        
     28200   293.25183     -8724.51        1418.7097     -7305.8003     -1925.6076      0.89831576     27000        
     28300   290.57608     -8714.9364      1405.7648     -7309.1716     -1936.8464      0.89831576     27000        
     28400   288.59491     -8707.3443      1396.1803     -7311.164      -1712.4896      0.89831576     27000        
     28500   297.01708     -8746.2899      1436.9255     -7309.3644     -1336.2337      0.89831576     27000        
     28600   295.95756     -8738.4896      1431.7997     -7306.6899     -969.7047       0.89831576     27000        
     28700   294.48098     -8728.6866      1424.6562     -7304.0304     -1144.2323      0.89831576     27000        
     28800   295.74509     -8729.7142      1430.7718     -7298.9424     -1696.2246      0.89831576     27000        
     28900   302.0795      -8753.0638      1461.4167     -7291.647      -1958.2147      0.89831576     27000        
     29000   300.68186     -8736.6566      1454.6552     -7282.0015     -1434.3482      0.89831576     27000        
     29100   312.78401     -8785.5475      1513.2036     -7272.3439     -973.30326      0.89831576     27000        
     29200   313.66613     -8784.5137      1517.4712     -7267.0425     -1214.8769      0.89831576     27000        
     29300   302.88317     -8732.006       1465.3048     -7266.7012     -1051.6328      0.89831576     27000        
     29400   299.46735     -8720.0012      1448.7795     -7271.2216     -1176.8361      0.89831576     27000        
     29500   297.0126      -8717.548       1436.9038     -7280.6442     -749.74348      0.89831576     27000        
     29600   305.04037     -8770.2845      1475.741      -7294.5435     -1109.6935      0.89831576     27000        
     29700   301.77006     -8776.4675      1459.9197     -7316.5478     -823.489        0.89831576     27000        
     29800   302.88865     -8805.1122      1465.3313     -7339.7809     -1363.9268      0.89831576     27000        
     29900   294.6143      -8784.1747      1425.3012     -7358.8735     -1892.6788      0.89831576     27000        
     30000   293.91853     -8791.9793      1421.9352     -7370.0442     -2168.7037      0.89831576     27000        
     30100   294.67191     -8801.2611      1425.5799     -7375.6812     -2024.3143      0.89831576     27000        
     30200   294.70909     -8803.3353      1425.7597     -7377.5755     -1994.4749      0.89831576     27000        
     30300   288.63056     -8772.7522      1396.3527     -7376.3994     -856.72306      0.89831576     27000        
     30400   298.40029     -8813.2665      1443.6172     -7369.6493     -976.95266      0.89831576     27000        
     30500   294.02901     -8783.7196      1422.4696     -7361.25       -1268.0144      0.89831576     27000        
     30600   293.34566     -8770.3892      1419.1637     -7351.2255     -1299.7446      0.89831576     27000        
     30700   301.73688     -8798.0033      1459.7592     -7338.2441     -997.38543      0.89831576     27000        
     30800   306.03573     -8807.5158      1480.5564     -7326.9594     -715.3974       0.89831576     27000        
     30900   306.93848     -8805.5797      1484.9238     -7320.6559     -1030.3759      0.89831576     27000        
     31000   299.788       -8769.518       1450.3308     -7319.1872     -1165.9047      0.89831576     27000        
     31100   295.83102     -8751.6462      1431.1875     -7320.4587     -1683.9514      0.89831576     27000        
     31200   306.22767     -8804.8644      1481.485      -7323.3795     -1359.8449      0.89831576     27000        
     31300   304.6543      -8804.9582      1473.8733     -7331.085      -1298.3797      0.89831576     27000        
     31400   304.30192     -8820.8042      1472.1685     -7348.6357     -1266.1807      0.89831576     27000        
     31500   291.32999     -8782.6056      1409.4122     -7373.1934     -900.14798      0.89831576     27000        
     31600   303.64658     -8868.7082      1468.998      -7399.7102     -1399.2841      0.89831576     27000        
     31700   296.05345     -8853.3197      1432.2636     -7421.0561     -2215.5983      0.89831576     27000        
     31800   288.78886     -8829.3063      1397.1185     -7432.1878     -1167.116       0.89831576     27000        
     31900   295.60502     -8866.4341      1430.0941     -7436.34       -1112.9365      0.89831576     27000        
     32000   303.03093     -8904.4974      1466.0196     -7438.4778     -1993.6084      0.89831576     27000        
     32100   297.4448      -8877.5621      1438.9947     -7438.5674     -2077.0113      0.89831576     27000        
     32200   293.05554     -8854.0208      1417.7601     -7436.2607     -1924.8602      0.89831576     27000        
     32300   290.02145     -8831.4633      1403.0816     -7428.3817     -2071.1755      0.89831576     27000        
     32400   296.47809     -8851.3343      1434.3179     -7417.0164     -1324.8297      0.89831576     27000        
     32500   300.67477     -8858.2434      1454.6208     -7403.6226     -1000.3123      0.89831576     27000        
     32600   308.01275     -8881.4543      1490.1209     -7391.3334     -1546.0026      0.89831576     27000        
     32700   296.40343     -8815.5968      1433.9567     -7381.6401     -992.67224      0.89831576     27000        
     32800   300.35266     -8826.0735      1453.0625     -7373.011      -1545.1925      0.89831576     27000        
     32900   305.27105     -8842.987       1476.857      -7366.13       -2026.9275      0.89831576     27000        
     33000   293.0666      -8777.8         1417.8136     -7359.9864     -1285.32        0.89831576     27000        
     33100   294.26294     -8775.8926      1423.6014     -7352.2913     -2269.8006      0.89831576     27000        
     33200   299.84806     -8793.9345      1450.6213     -7343.3132     -1534.1766      0.89831576     27000        
     33300   295.02356     -8760.8196      1427.2811     -7333.5385     -1245.1239      0.89831576     27000        
     33400   298.45662     -8765.5783      1443.8897     -7321.6885     -1472.1848      0.89831576     27000        
     33500   294.60519     -8734.6303      1425.2571     -7309.3732     -1417.4693      0.89831576     27000        
     33600   303.85392     -8765.8682      1470.0011     -7295.8671     -1646.9766      0.89831576     27000        
     33700   301.79824     -8742.7798      1460.056      -7282.7238     -1229.0414      0.89831576     27000        
     33800   295.8991      -8700.321       1431.5169     -7268.8041     -1384.2562      0.89831576     27000        
     33900   304.64334     -8727.8538      1473.8202     -7254.0336     -1919.0352      0.89831576     27000        
     34000   307.76943     -8727.5875      1488.9438     -7238.6437     -1954.3443      0.89831576     27000        
     34100   308.75559     -8714.9456      1493.7147     -7221.2309     -1708.5409      0.89831576     27000        
     34200   313.32006     -8712.2567      1515.7969     -7196.4597     -1512.4525      0.89831576     27000        
     34300   315.58036     -8692.0533      1526.7319     -7165.3213     -1794.1463      0.89831576     27000        
     34400   316.04857     -8672.9713      1528.9971     -7143.9742     -1218.5095      0.89831576     27000        
     34500   312.90926     -8648.6856      1513.8096     -7134.8761     -1229.3768      0.89831576     27000        
     34600   308.69191     -8627.5235      1493.4066     -7134.1169     -1803.6677      0.89831576     27000        
     34700   315.53231     -8667.4301      1526.4995     -7140.9306     -1829.1413      0.89831576     27000        
     34800   318.54549     -8696.3492      1541.0768     -7155.2724     -1716.0732      0.89831576     27000        
     34900   318.71153     -8718.5082      1541.8801     -7176.6281     -1467.8833      0.89831576     27000        
     35000   309.32348     -8694.7572      1496.462      -7198.2951     -1242.3864      0.89831576     27000        
     35100   305.83235     -8694.5975      1479.5725     -7215.025      -916.36413      0.89831576     27000        
     35200   303.44661     -8696.5755      1468.0306     -7228.5449     -1374.8357      0.89831576     27000        
     35300   306.00766     -8722.3586      1480.4206     -7241.9381     -1003.4923      0.89831576     27000        
     35400   309.11003     -8751.4039      1495.4294     -7255.9745     -1193.921       0.89831576     27000        
     35500   298.02666     -8714.9712      1441.8097     -7273.1615     -1428.3856      0.89831576     27000        
     35600   294.20693     -8713.2616      1423.3304     -7289.9312     -1853.656       0.89831576     27000        
     35700   295.06494     -8730.0966      1427.4813     -7302.6153     -2346.4701      0.89831576     27000        
     35800   292.4584      -8725.4101      1414.8712     -7310.5389     -2082.6075      0.89831576     27000        
     35900   304.49745     -8788.0494      1473.1144     -7314.935      -1755.3108      0.89831576     27000        
     36000   300.69779     -8773.9724      1454.7322     -7319.2402     -1759.8694      0.89831576     27000        
     36100   291.51652     -8734.5908      1410.3146     -7324.2762     -878.40179      0.89831576     27000        
     36200   301.39665     -8787.4932      1458.1132     -7329.38       -1589.5452      0.89831576     27000        
     36300   305.49165     -8813.9513      1477.9242     -7336.0271     -1709.4743      0.89831576     27000        
     36400   299.22168     -8794.5227      1447.591      -7346.9317     -1822.3583      0.89831576     27000        
     36500   297.7631      -8799.9663      1440.5346     -7359.4317     -1792.1761      0.89831576     27000        
     36600   292.32818     -8785.1273      1414.2413     -7370.886      -1687.4471      0.89831576     27000        
     36700   282.98624     -8747.5596      1369.0463     -7378.5133     -1819.4277      0.89831576     27000        
     36800   286.38792     -8765.9282      1385.5031     -7380.425      -1590.0414      0.89831576     27000        
     36900   294.28606     -8800.8523      1423.7132     -7377.1392     -1808.5654      0.89831576     27000        
     37000   291.16708     -8776.5056      1408.624      -7367.8816     -1184.9348      0.89831576     27000        
     37100   293.63597     -8772.6387      1420.5682     -7352.0705     -1140.8643      0.89831576     27000        
     37200   299.01105     -8778.5943      1446.572      -7332.0223     -1721.7041      0.89831576     27000        
     37300   303.34131     -8777.4011      1467.5212     -7309.8799     -1315.4007      0.89831576     27000        
     37400   305.94566     -8773.5048      1480.1206     -7293.3841     -984.05832      0.89831576     27000        
     37500   300.15321     -8735.7599      1452.0976     -7283.6623     -1518.4703      0.89831576     27000        
     37600   312.05074     -8789.7688      1509.6561     -7280.1126     -1626.3361      0.89831576     27000        
     37700   303.8121      -8751.162       1469.7988     -7281.3632     -1367.1753      0.89831576     27000        
     37800   302.0013      -8745.7599      1461.0384     -7284.7215     -1600.6879      0.89831576     27000        
     37900   302.38835     -8754.287       1462.9109     -7291.3761     -1465.1313      0.89831576     27000        
     38000   299.26918     -8745.1148      1447.8208     -7297.294      -1465.5734      0.89831576     27000        
     38100   312.01984     -8813.6301      1509.5066     -7304.1235     -1524.6029      0.89831576     27000        
     38200   303.23237     -8780.3854      1466.9942     -7313.3912     -970.94145      0.89831576     27000        
     38300   305.85672     -8802.8108      1479.6904     -7323.1204     -1460.8942      0.89831576     27000        
     38400   296.54952     -8768.2834      1434.6635     -7333.6199     -2197.5138      0.89831576     27000        
     38500   290.76186     -8749.7908      1406.6636     -7343.1271     -1257.9922      0.89831576     27000        
     38600   306.8837      -8833.3605      1484.6588     -7348.7017     -1608.7833      0.89831576     27000        
     38700   293.5753      -8773.7684      1420.2747     -7353.4937     -1221.4658      0.89831576     27000        
     38800   300.41325     -8809.0394      1453.3557     -7355.6838     -1860.111       0.89831576     27000        
     38900   307.79707     -8844.8705      1489.0775     -7355.793      -1965.516       0.89831576     27000        
     39000   296.28485     -8789.0335      1433.3831     -7355.6504     -941.83748      0.89831576     27000        
     39100   293.52186     -8774.2266      1420.0161     -7354.2105     -1340.7239      0.89831576     27000        
     39200   298.95443     -8798.0082      1446.2981     -7351.7101     -1771.4124      0.89831576     27000        
     39300   296.63877     -8785.596       1435.0953     -7350.5007     -1633.4153      0.89831576     27000        
     39400   296.27184     -8781.2775      1433.3201     -7347.9574     -938.41125      0.89831576     27000        
     39500   303.2651      -8811.3081      1467.1525     -7344.1556     -2020.3682      0.89831576     27000        
     39600   293.91567     -8760.0535      1421.9213     -7338.1322     -1968.637       0.89831576     27000        
     39700   304.31981     -8796.0429      1472.255      -7323.7879     -2032.7369      0.89831576     27000        
     39800   296.41404     -8730.0463      1434.008      -7296.0382     -1104.2354      0.89831576     27000        
     39900   311.96981     -8771.5771      1509.2646     -7262.3125     -1690.6566      0.89831576     27000        
     40000   305.03002     -8716.4662      1475.6909     -7240.7753     -1485.8967      0.89831576     27000        
     40100   308.68189     -8722.6417      1493.3581     -7229.2835     -1656.439       0.89831576     27000        
     40200   308.74385     -8719.2374      1493.6579     -7225.5795     -2141.6148      0.89831576     27000        
     40300   295.34475     -8654.1501      1428.835      -7225.3151     -1698.8192      0.89831576     27000        
     40400   301.08291     -8682.4715      1456.5954     -7225.8761     -1905.402       0.89831576     27000        
     40500   302.22318     -8688.4081      1462.1119     -7226.2963     -1663.3593      0.89831576     27000        
     40600   303.9181      -8698.6057      1470.3116     -7228.2941     -1398.8708      0.89831576     27000        
     40700   301.24263     -8690.4407      1457.3681     -7233.0726     -1590.0357      0.89831576     27000        
     40800   305.17395     -8716.8961      1476.3872     -7240.5089     -1493.8618      0.89831576     27000        
     40900   307.71859     -8742.4059      1488.6978     -7253.7081     -883.04813      0.89831576     27000        
     41000   310.03824     -8773.4487      1499.9199     -7273.5287     -708.87815      0.89831576     27000        
     41100   304.32016     -8767.9514      1472.2567     -7295.6946     -984.10388      0.89831576     27000        
     41200   296.83325     -8750.3046      1436.0361     -7314.2685     -1206.0418      0.89831576     27000        
     41300   307.38543     -8814.8601      1487.0861     -7327.7741     -1504.335       0.89831576     27000        
     41400   295.9535      -8771.4056      1431.78       -7339.6256     -1079.1259      0.89831576     27000        
     41500   298.8966      -8795.8741      1446.0183     -7349.8558     -1392.7324      0.89831576     27000        
     41600   293.57847     -8778.1148      1420.29       -7357.8248     -926.84583      0.89831576     27000        
     41700   291.6358      -8773.499       1410.8916     -7362.6073     -1292.455       0.89831576     27000        
     41800   289.15008     -8764.604       1398.8661     -7365.7379     -1493.6895      0.89831576     27000        
     41900   291.6105      -8778.605       1410.7692     -7367.8358     -1968.6968      0.89831576     27000        
     42000   301.46251     -8826.5782      1458.4318     -7368.1464     -2367.8508      0.89831576     27000        
     42100   295.30203     -8795.8189      1428.6283     -7367.1906     -1691.9254      0.89831576     27000        
     42200   292.96397     -8781.4408      1417.3171     -7364.1237     -1236.7452      0.89831576     27000        
     42300   299.34229     -8804.9926      1448.1745     -7356.8181     -1516.715       0.89831576     27000        
     42400   298.02752     -8785.1668      1441.8138     -7343.353      -1474.644       0.89831576     27000        
     42500   306.44239     -8811.1874      1482.5238     -7328.6637     -1604.9742      0.89831576     27000        
     42600   302.99519     -8779.3554      1465.8467     -7313.5087     -1320.7943      0.89831576     27000        
     42700   295.31577     -8725.8138      1428.6948     -7297.119      -1426.4707      0.89831576     27000        
     42800   299.17832     -8728.0339      1447.3813     -7280.6526     -1902.408       0.89831576     27000        
     42900   298.83798     -8712.2546      1445.7348     -7266.5198     -1393.788       0.89831576     27000        
     43000   301.95459     -8716.3468      1460.8124     -7255.5343     -1283.7858      0.89831576     27000        
     43100   301.36549     -8707.4784      1457.9625     -7249.516      -1925.2766      0.89831576     27000        
     43200   298.31667     -8690.9678      1443.2127     -7247.7551     -2361.9934      0.89831576     27000        
     43300   301.55855     -8706.8027      1458.8964     -7247.9062     -2253.1564      0.89831576     27000        
     43400   305.45561     -8726.2299      1477.7499     -7248.48       -1572.7447      0.89831576     27000        
     43500   303.42483     -8718.5633      1467.9252     -7250.6381     -1568.8588      0.89831576     27000        
     43600   294.52255     -8679.1761      1424.8573     -7254.3188     -2086.9054      0.89831576     27000        
     43700   303.03878     -8724.1717      1466.0576     -7258.1141     -1799.0331      0.89831576     27000        
     43800   294.79381     -8688.3837      1426.1696     -7262.214      -1737.6663      0.89831576     27000        
     43900   303.61564     -8735.1051      1468.8483     -7266.2567     -2628.4459      0.89831576     27000        
     44000   296.8448      -8705.9636      1436.092      -7269.8716     -1764.1377      0.89831576     27000        
     44100   301.43683     -8729.9088      1458.3076     -7271.6013     -2321.4009      0.89831576     27000        
     44200   299.97316     -8723.7408      1451.2266     -7272.5143     -1751.1177      0.89831576     27000        
     44300   298.04873     -8714.5777      1441.9165     -7272.6612     -1844.8814      0.89831576     27000        
     44400   294.74356     -8698.4496      1425.9265     -7272.523      -1448.2932      0.89831576     27000        
     44500   298.70306     -8716.2973      1445.082      -7271.2153     -2230.5191      0.89831576     27000        
     44600   298.98881     -8715.9731      1446.4644     -7269.5086     -1853.0378      0.89831576     27000        
     44700   297.12568     -8706.034       1437.4509     -7268.5831     -1045.1385      0.89831576     27000        
     44800   299.8892      -8719.688       1450.8204     -7268.8676     -1248.2344      0.89831576     27000        
     44900   294.9611      -8697.1253      1426.9789     -7270.1464     -1535.2896      0.89831576     27000        
     45000   301.06414     -8729.2481      1456.5046     -7272.7436     -1633.7292      0.89831576     27000        
     45100   298.33145     -8722.7326      1443.2842     -7279.4484     -2134.0259      0.89831576     27000        
     45200   291.96948     -8704.2125      1412.5059     -7291.7066     -1440.8297      0.89831576     27000        
     45300   302.71146     -8769.643       1464.474      -7305.169      -1648.2251      0.89831576     27000        
     45400   296.76181     -8757.4752      1435.6905     -7321.7847     -1995.3458      0.89831576     27000        
     45500   285.84043     -8721.6171      1382.8545     -7338.7626     -1871.5393      0.89831576     27000        
     45600   295.06861     -8778.639       1427.4991     -7351.14       -2164.0916      0.89831576     27000        
     45700   294.67418     -8786.8536      1425.5908     -7361.2628     -1962.1623      0.89831576     27000        
     45800   297.60635     -8809.4882      1439.7763     -7369.7119     -1952.8908      0.89831576     27000        
     45900   297.43719     -8815.1491      1438.9579     -7376.1912     -1725.6945      0.89831576     27000        
     46000   293.82182     -8803.1357      1421.4673     -7381.6684     -1216.2111      0.89831576     27000        
     46100   290.94887     -8794.8409      1407.5684     -7387.2726     -1710.6533      0.89831576     27000        
     46200   282.91989     -8755.3725      1368.7253     -7386.6472     -2033.5466      0.89831576     27000        
     46300   294.48869     -8803.3642      1424.6935     -7378.6707     -2044.5725      0.89831576     27000        
     46400   294.58596     -8788.0889      1425.1641     -7362.9248     -1423.3163      0.89831576     27000        
     46500   310.43983     -8838.4826      1501.8628     -7336.6197     -1473.9737      0.89831576     27000        
     46600   306.59601     -8792.8765      1483.267      -7309.6095     -1364.813       0.89831576     27000        
     46700   291.80567     -8703.0335      1411.7134     -7291.32       -823.5137       0.89831576     27000        
     46800   300.10088     -8730.4167      1451.8445     -7278.5722     -1733.8041      0.89831576     27000        
     46900   305.26836     -8747.3655      1476.844      -7270.5215     -1924.8251      0.89831576     27000        
     47000   305.6904      -8745.9148      1478.8857     -7267.0291     -1301.3596      0.89831576     27000        
     47100   302.51088     -8730.1537      1463.5037     -7266.65       -1092.2376      0.89831576     27000        
     47200   299.09906     -8714.5862      1446.9978     -7267.5884     -1137.9142      0.89831576     27000        
     47300   297.0088      -8707.2815      1436.8854     -7270.3961     -1216.933       0.89831576     27000        
     47400   295.486       -8702.973       1429.5184     -7273.4546     -1806.2461      0.89831576     27000        
     47500   297.04661     -8710.3135      1437.0683     -7273.2451     -1881.6843      0.89831576     27000        
     47600   292.57443     -8684.148       1415.4326     -7268.7154     -1814.0722      0.89831576     27000        
     47700   295.0962      -8687.2197      1427.6325     -7259.5872     -1235.4034      0.89831576     27000        
     47800   304.08309     -8717.4966      1471.1098     -7246.3868     -1463.1458      0.89831576     27000        
     47900   303.76235     -8701.472       1469.5581     -7231.9139     -1370.4011      0.89831576     27000        
     48000   303.03077     -8681.1924      1466.0188     -7215.1736     -1546.6808      0.89831576     27000        
     48100   305.14139     -8676.2234      1476.2297     -7199.9937     -1641.4549      0.89831576     27000        
     48200   310.51415     -8690.2952      1502.2223     -7188.0729     -1896.778       0.89831576     27000        
     48300   302.29207     -8644.2196      1462.4451     -7181.7745     -1566.0824      0.89831576     27000        
     48400   303.49743     -8649.3561      1468.2765     -7181.0797     -2018.2432      0.89831576     27000        
     48500   308.46272     -8676.9947      1492.2978     -7184.6969     -2002.6094      0.89831576     27000        
     48600   305.51247     -8674.9037      1478.0249     -7196.8788     -1354.5575      0.89831576     27000        
     48700   296.47782     -8654.9554      1434.3166     -7220.6388     -2000.7358      0.89831576     27000        
     48800   294.67755     -8677.1405      1425.6072     -7251.5333     -1070.604       0.89831576     27000        
     48900   299.49631     -8726.1288      1448.9196     -7277.2092     -1291.8283      0.89831576     27000        
     49000   302.15893     -8757.88        1461.801      -7296.079      -1245.8918      0.89831576     27000        
     49100   297.05553     -8747.5602      1437.1115     -7310.4487     -992.67671      0.89831576     27000        
     49200   295.44453     -8749.2792      1429.3177     -7319.9615     -1931.3063      0.89831576     27000        
     49300   286.74279     -8715.3198      1387.22       -7328.0998     -2044.3947      0.89831576     27000        
     49400   296.22094     -8765.5022      1433.0738     -7332.4284     -1429.6074      0.89831576     27000        
     49500   298.81834     -8781.8681      1445.6397     -7336.2284     -963.36903      0.89831576     27000        
     49600   297.31425     -8777.9321      1438.3631     -7339.569      -1356.0851      0.89831576     27000        
     49700   298.68777     -8786.3659      1445.0081     -7341.3578     -1883.2617      0.89831576     27000        
     49800   288.5591      -8737.4403      1396.007      -7341.4333     -2066.455       0.89831576     27000        
     49900   300.60444     -8794.6337      1454.2806     -7340.3531     -2165.8958      0.89831576     27000        
     50000   295.85039     -8769.2034      1431.2812     -7337.9222     -1889.5695      0.89831576     27000        
     50100   300.58838     -8785.7615      1454.2029     -7331.5586     -1881.5473      0.89831576     27000        
     50200   301.80793     -8784.2837      1460.1029     -7324.1808     -1860.0358      0.89831576     27000        
     50300   294.15731     -8740.9503      1423.0903     -7317.86       -1816.2348      0.89831576     27000        
     50400   295.57758     -8741.1492      1429.9614     -7311.1879     -2455.5583      0.89831576     27000        
     50500   301.91416     -8762.4521      1460.6168     -7301.8353     -2164.5923      0.89831576     27000        
     50600   300.06638     -8738.9139      1451.6775     -7287.2364     -1642.9769      0.89831576     27000        
     50700   299.38715     -8719.1913      1448.3915     -7270.7997     -1732.8891      0.89831576     27000        
     50800   298.55767     -8698.2646      1444.3786     -7253.8859     -1792.7953      0.89831576     27000        
     50900   300.42234     -8690.7295      1453.3996     -7237.3299     -1813.0882      0.89831576     27000        
     51000   300.48777     -8676.823       1453.7162     -7223.1069     -1987.4358      0.89831576     27000        
     51100   301.01092     -8669.0879      1456.2471     -7212.8408     -1180.1794      0.89831576     27000        
     51200   300.88631     -8661.9583      1455.6443     -7206.3141     -1129.6393      0.89831576     27000        
     51300   316.90598     -8738.4083      1533.1451     -7205.2632     -1675.8541      0.89831576     27000        
     51400   313.28685     -8726.1443      1515.6363     -7210.5081     -1926.247       0.89831576     27000        
     51500   313.58068     -8737.9112      1517.0578     -7220.8534     -2036.4631      0.89831576     27000        
     51600   301.40406     -8691.3566      1458.1491     -7233.2076     -1048.2852      0.89831576     27000        
     51700   299.99785     -8695.968       1451.346      -7244.622      -1550.9288      0.89831576     27000        
     51800   307.80673     -8744.3565      1489.1243     -7255.2323     -1726.7153      0.89831576     27000        
     51900   300.59994     -8719.6826      1454.2589     -7265.4238     -1171.6428      0.89831576     27000        
     52000   294.84962     -8697.9237      1426.4396     -7271.4841     -983.43526      0.89831576     27000        
     52100   294.07219     -8697.1783      1422.6785     -7274.4997     -1038.4405      0.89831576     27000        
     52200   299.6674      -8726.6699      1449.7473     -7276.9226     -1124.5764      0.89831576     27000        
     52300   299.94148     -8731.5674      1451.0733     -7280.494      -1363.9651      0.89831576     27000        
     52400   302.86991     -8751.4132      1465.2406     -7286.1726     -1251.8971      0.89831576     27000        
     52500   302.83034     -8758.9633      1465.0492     -7293.9141     -1447.3735      0.89831576     27000        
     52600   298.04763     -8745.0543      1441.9111     -7303.1432     -1762.1309      0.89831576     27000        
     52700   296.89118     -8750.6733      1436.3164     -7314.3569     -1882.6672      0.89831576     27000        
     52800   298.01724     -8768.629       1441.7641     -7326.8649     -1791.9605      0.89831576     27000        
     52900   296.3721      -8771.8679      1433.8051     -7338.0628     -919.23322      0.89831576     27000        
     53000   296.6084      -8783.2034      1434.9483     -7348.2551     -1045.0776      0.89831576     27000        
     53100   298.60118     -8800.6733      1444.5891     -7356.0842     -1161.6695      0.89831576     27000        
     53200   299.01572     -8808.0011      1446.5946     -7361.4065     -1634.1676      0.89831576     27000        
     53300   302.06173     -8826.5066      1461.3308     -7365.1758     -1353.3635      0.89831576     27000        
     53400   291.14135     -8777.8225      1408.4995     -7369.3229     -1198.4969      0.89831576     27000        
     53500   288.42461     -8766.0409      1395.3563     -7370.6845     -1200.0808      0.89831576     27000        
     53600   295.38112     -8797.9223      1429.0109     -7368.9114     -1214.1818      0.89831576     27000        
     53700   295.5452      -8795.5156      1429.8047     -7365.7109     -1542.9972      0.89831576     27000        
     53800   296.37854     -8795.438       1433.8363     -7361.6016     -2084.865       0.89831576     27000        
     53900   299.04306     -8803.2287      1446.7269     -7356.5018     -1849.9599      0.89831576     27000        
     54000   296.72233     -8788.5893      1435.4995     -7353.0898     -1547.5965      0.89831576     27000        
     54100   288.34662     -8743.7983      1394.9791     -7348.8192     -2088.4321      0.89831576     27000        
     54200   286.33823     -8726.2266      1385.2627     -7340.9639     -2091.8159      0.89831576     27000        
     54300   300.23984     -8780.585       1452.5167     -7328.0682     -1651.5484      0.89831576     27000        
     54400   297.50914     -8755.181       1439.306      -7315.875      -1520.426       0.89831576     27000        
     54500   293.39547     -8724.1177      1419.4046     -7304.7131     -1558.3367      0.89831576     27000        
     54600   299.11453     -8741.4138      1447.0726     -7294.3412     -2261.7363      0.89831576     27000        
     54700   293.68885     -8706.9722      1420.824      -7286.1482     -1703.62        0.89831576     27000        
     54800   305.11952     -8754.1232      1476.1239     -7277.9993     -1517.6896      0.89831576     27000        
     54900   301.08045     -8729.6525      1456.5835     -7273.0691     -1166.5901      0.89831576     27000        
     55000   294.45047     -8693.8028      1424.5086     -7269.2942     -774.51516      0.89831576     27000        
     55100   298.32848     -8708.6927      1443.2699     -7265.4228     -1373.1505      0.89831576     27000        
     55200   292.40471     -8676.0804      1414.6115     -7261.4689     -1782.7788      0.89831576     27000        
     55300   304.55516     -8730.0362      1473.3936     -7256.6426     -1954.3488      0.89831576     27000        
     55400   296.95643     -8687.3561      1436.632      -7250.7241     -2256.2087      0.89831576     27000        
     55500   304.41917     -8714.0665      1472.7357     -7241.3308     -1963.1449      0.89831576     27000        
     55600   305.89699     -8710.1737      1479.8852     -7230.2885     -1627.8302      0.89831576     27000        
     55700   295.30516     -8644.3203      1428.6435     -7215.6769     -1718.7101      0.89831576     27000        
     55800   301.49192     -8655.8722      1458.5741     -7197.2981     -1723.0767      0.89831576     27000        
     55900   300.01201     -8628.6039      1451.4145     -7177.1894     -1396.0779      0.89831576     27000        
     56000   317.42803     -8698.283       1535.6707     -7162.6123     -2161.6479      0.89831576     27000        
     56100   309.02672     -8650.749       1495.0264     -7155.7226     -1896.879       0.89831576     27000        
     56200   304.08066     -8625.6441      1471.098      -7154.5461     -1547.9665      0.89831576     27000        
     56300   308.37724     -8650.5239      1491.8843     -7158.6396     -1839.9391      0.89831576     27000        
     56400   309.76636     -8670.2556      1498.6046     -7171.6509     -1714.3818      0.89831576     27000        
     56500   303.0469      -8657.4771      1466.0969     -7191.3802     -1269.975       0.89831576     27000        
     56600   303.06803     -8681.1537      1466.1991     -7214.9546     -1790.686       0.89831576     27000        
     56700   302.60488     -8696.6222      1463.9585     -7232.6637     -1915.2762      0.89831576     27000        
     56800   300.14086     -8697.3573      1452.0379     -7245.3195     -2211.361       0.89831576     27000        
     56900   288.78414     -8648.7594      1397.0957     -7251.6636     -1896.8401      0.89831576     27000        
     57000   294.08797     -8675.4203      1422.7549     -7252.6655     -1369.2094      0.89831576     27000        
     57100   292.55817     -8666.4607      1415.3539     -7251.1068     -1593.4243      0.89831576     27000        
     57200   297.82141     -8690.125       1440.8167     -7249.3083     -1539.8583      0.89831576     27000        
     57300   295.09259     -8675.4255      1427.6151     -7247.8104     -1702.9553      0.89831576     27000        
     57400   293.30959     -8665.933       1418.9892     -7246.9438     -1513.3871      0.89831576     27000        
     57500   300.82009     -8698.9252      1455.3239     -7243.6013     -1947.6543      0.89831576     27000        
     57600   299.7983      -8690.5544      1450.3806     -7240.1738     -1543.0786      0.89831576     27000        
     57700   296.57321     -8671.3642      1434.7781     -7236.5861     -1385.7389      0.89831576     27000        
     57800   298.68204     -8678.0349      1444.9803     -7233.0546     -1074.5318      0.89831576     27000        
     57900   298.87571     -8676.3578      1445.9173     -7230.4406     -1463.5212      0.89831576     27000        
     58000   304.37529     -8702.4596      1472.5234     -7229.9362     -1567.0093      0.89831576     27000        
     58100   304.08915     -8703.7823      1471.1391     -7232.6432     -1906.6189      0.89831576     27000        
     58200   294.10881     -8664.2124      1422.8557     -7241.3567     -1134.8401      0.89831576     27000        
     58300   311.54522     -8763.7583      1507.2105     -7256.5478     -1840.9053      0.89831576     27000        
     58400   297.7813      -8718.5228      1440.6227     -7277.9001     -2068.3388      0.89831576     27000        
     58500   289.51857     -8700.2331      1400.6488     -7299.5843     -2015.3214      0.89831576     27000        
     58600   291.27236     -8724.7629      1409.1334     -7315.6295     -1919.0238      0.89831576     27000        
     58700   284.15892     -8700.5189      1374.7196     -7325.7993     -1678.7547      0.89831576     27000        
     58800   288.76909     -8727.5735      1397.0229     -7330.5505     -2091.1997      0.89831576     27000        
     58900   295.50541     -8761.8153      1429.6122     -7332.2031     -2029.9553      0.89831576     27000        
     59000   294.05465     -8754.0935      1422.5937     -7331.4999     -1884.6454      0.89831576     27000        
     59100   300.53481     -8782.2081      1453.9438     -7328.2643     -1557.9761      0.89831576     27000        
     59200   301.93321     -8784.4018      1460.709      -7323.6928     -1567.8426      0.89831576     27000        
     59300   307.55747     -8809.3234      1487.9183     -7321.4051     -1873.3745      0.89831576     27000        
     59400   304.34734     -8795.3022      1472.3882     -7322.914      -1909.2137      0.89831576     27000        
     59500   301.39091     -8784.5368      1458.0854     -7326.4513     -1496.1076      0.89831576     27000        
     59600   293.14622     -8751.7127      1418.1988     -7333.5139     -1186.223       0.89831576     27000        
     59700   302.60745     -8807.3022      1463.9709     -7343.3314     -1218.401       0.89831576     27000        
     59800   297.69202     -8799.4509      1440.1908     -7359.2602     -1257.372       0.89831576     27000        
     59900   288.9367      -8776.3449      1397.8338     -7378.5111     -1471.7923      0.89831576     27000        
     60000   288.59676     -8790.1564      1396.1892     -7393.9673     -1649.2798      0.89831576     27000        
     60100   286.31221     -8789.4404      1385.1369     -7404.3036     -1850.7258      0.89831576     27000        
     60200   287.31861     -8799.3623      1390.0057     -7409.3566     -2478.678       0.89831576     27000        
     60300   286.35511     -8793.4256      1385.3444     -7408.0812     -1661.9234      0.89831576     27000        
     60400   295.74791     -8830.7204      1430.7854     -7399.935      -1254.4661      0.89831576     27000        
     60500   292.72        -8803.7713      1416.1368     -7387.6345     -1833.4287      0.89831576     27000        
     60600   294.42838     -8794.0422      1424.4017     -7369.6405     -1466.1705      0.89831576     27000        
     60700   300.96324     -8805.415       1456.0164     -7349.3985     -1304.7983      0.89831576     27000        
     60800   297.5017      -8772.1848      1439.27       -7332.9147     -1411.4185      0.89831576     27000        
     60900   300.27179     -8773.6854      1452.6713     -7321.0141     -1958.6537      0.89831576     27000        
     61000   305.40513     -8792.0426      1477.5057     -7314.537      -984.31039      0.89831576     27000        
     61100   306.63373     -8796.2468      1483.4494     -7312.7974     -1438.9366      0.89831576     27000        
     61200   304.09781     -8786.0193      1471.181      -7314.8382     -1623.91        0.89831576     27000        
     61300   293.70932     -8738.389       1420.923      -7317.466      -1555.7536      0.89831576     27000        
     61400   297.66145     -8760.6124      1440.0429     -7320.5695     -2084.0674      0.89831576     27000        
     61500   299.28994     -8770.9885      1447.9213     -7323.0673     -1960.7201      0.89831576     27000        
     61600   292.04244     -8740.3656      1412.8589     -7327.5067     -1399.5697      0.89831576     27000        
     61700   297.77399     -8772.2288      1440.5873     -7331.6415     -1754.9708      0.89831576     27000        
     61800   291.57053     -8744.497       1410.5759     -7333.9211     -1389.756       0.89831576     27000        
     61900   301.00177     -8791.5076      1456.2028     -7335.3048     -1854.4404      0.89831576     27000        
     62000   289.97254     -8741.4993      1402.845      -7338.6543     -1650.7848      0.89831576     27000        
     62100   298.64825     -8784.2801      1444.8168     -7339.4632     -1358.9191      0.89831576     27000        
     62200   298.18163     -8778.814       1442.5594     -7336.2546     -1710.0513      0.89831576     27000        
     62300   299.60626     -8781.3484      1449.4516     -7331.8968     -1230.2704      0.89831576     27000        
     62400   304.8608      -8804.385       1474.8722     -7329.5127     -1320.0227      0.89831576     27000        
     62500   298.31027     -8773.8637      1443.1818     -7330.6819     -1136.107       0.89831576     27000        
     62600   297.46353     -8774.5528      1439.0854     -7335.4674     -1652.66        0.89831576     27000        
     62700   295.13626     -8771.0317      1427.8263     -7343.2054     -1813.972       0.89831576     27000        
     62800   291.67225     -8760.3778      1411.068      -7349.3098     -1421.8223      0.89831576     27000        
     62900   296.98434     -8789.0177      1436.7671     -7352.2506     -2164.927       0.89831576     27000        
     63000   294.50426     -8780.0784      1424.7688     -7355.3096     -1754.0509      0.89831576     27000        
     63100   287.25962     -8744.3259      1389.7203     -7354.6056     -1871.7442      0.89831576     27000        
     63200   295.01365     -8777.919       1427.2332     -7350.6859     -1572.0726      0.89831576     27000        
     63300   299.51391     -8791.7605      1449.0048     -7342.7558     -1573.8878      0.89831576     27000        
     63400   294.49034     -8756.3407      1424.7015     -7331.6392     -1944.4653      0.89831576     27000        
     63500   299.19185     -8766.248       1447.4467     -7318.8013     -1050.9675      0.89831576     27000        
     63600   299.76945     -8754.3998      1450.241      -7304.1588     -1482.9219      0.89831576     27000        
     63700   298.81474     -8736.0805      1445.6223     -7290.4582     -1609.1131      0.89831576     27000        
     63800   299.94621     -8727.41        1451.0962     -7276.3139     -1907.1895      0.89831576     27000        
     63900   301.54074     -8722.7137      1458.8103     -7263.9034     -1584.6815      0.89831576     27000        
     64000   302.48595     -8717.2557      1463.3831     -7253.8727     -1566.7524      0.89831576     27000        
     64100   302.57213     -8712.9376      1463.8        -7249.1376     -1760.4837      0.89831576     27000        
     64200   298.29753     -8692.9661      1443.1201     -7249.846      -1325.7799      0.89831576     27000        
[...]
    184600   298.56865     -8811.2665      1444.4318     -7366.8347     -1343.2258      0.89831576     27000        
    184700   297.51417     -8798.4478      1439.3303     -7359.1175     -1487.4923      0.89831576     27000        
    184800   309.88853     -8852.3542      1499.1957     -7353.1585     -1281.6644      0.89831576     27000        
    184900   305.52337     -8831.5738      1478.0777     -7353.4961     -1630.0003      0.89831576     27000        
    185000   304.728       -8832.4751      1474.2298     -7358.2453     -1398.8781      0.89831576     27000        
    185100   296.3121      -8801.6351      1433.5149     -7368.1202     -708.27353      0.89831576     27000        
    185200   302.0871      -8843.2543      1461.4535     -7381.8008     -1217.9392      0.89831576     27000        
    185300   291.56753     -8806.6216      1410.5614     -7396.0602     -1286.6182      0.89831576     27000        
    185400   290.63136     -8814.6063      1406.0323     -7408.574      -1985.1712      0.89831576     27000        
    185500   287.67579     -8808.583       1391.7337     -7416.8493     -1763.9406      0.89831576     27000        
    185600   292.29221     -8835.342       1414.0673     -7421.2747     -1583.3978      0.89831576     27000        
    185700   289.48519     -8822.2568      1400.4873     -7421.7695     -1432.1283      0.89831576     27000        
    185800   296.3934      -8852.1781      1433.9082     -7418.2699     -1627.5681      0.89831576     27000        
    185900   292.29973     -8826.4093      1414.1036     -7412.3057     -1642.2988      0.89831576     27000        
    186000   298.80705     -8852.0794      1445.5851     -7406.4943     -1792.9433      0.89831576     27000        
    186100   298.21627     -8845.7271      1442.727      -7403.0001     -1610.0071      0.89831576     27000        
    186200   294.48717     -8823.4792      1424.6861     -7398.7931     -1187.078       0.89831576     27000        
    186300   294.92278     -8820.6635      1426.7935     -7393.8699     -1689.1967      0.89831576     27000        
    186400   288.90557     -8785.9434      1397.6832     -7388.2603     -1764.4706      0.89831576     27000        
    186500   300.30626     -8833.9765      1452.8381     -7381.1385     -1441.0986      0.89831576     27000        
    186600   297.09516     -8811.4534      1437.3032     -7374.1502     -1514.6343      0.89831576     27000        
    186700   298.11739     -8810.5589      1442.2486     -7368.3103     -1914.1342      0.89831576     27000        
    186800   301.28672     -8820.8581      1457.5814     -7363.2767     -2447.988       0.89831576     27000        
    186900   300.27039     -8811.8654      1452.6645     -7359.2009     -2046.3114      0.89831576     27000        
    187000   288.64422     -8749.8045      1396.4188     -7353.3857     -1489.9934      0.89831576     27000        
    187100   300.30936     -8797.175       1452.853      -7344.322      -1505.1128      0.89831576     27000        
    187200   296.15939     -8762.5884      1432.7761     -7329.8123     -1184.2544      0.89831576     27000        
    187300   298.69884     -8754.2889      1445.0616     -7309.2273     -1099.7074      0.89831576     27000        
    187400   301.17979     -8745.1052      1457.0641     -7288.0412     -889.33753      0.89831576     27000        
    187500   314.99245     -8796.0404      1523.8877     -7272.1527     -1467.7959      0.89831576     27000        
    187600   305.76069     -8743.6965      1479.2258     -7264.4708     -1529.227       0.89831576     27000        
    187700   301.06113     -8717.4784      1456.49       -7260.9884     -1858.373       0.89831576     27000        
    187800   303.92799     -8730.9609      1470.3594     -7260.6014     -1528.5785      0.89831576     27000        
    187900   296.67163     -8699.8955      1435.2542     -7264.6413     -1105.4496      0.89831576     27000        
    188000   300.46791     -8726.0476      1453.6201     -7272.4274     -1641.3378      0.89831576     27000        
    188100   294.40543     -8706.8337      1424.2907     -7282.543      -1516.6014      0.89831576     27000        
    188200   295.35142     -8723.557       1428.8673     -7294.6897     -1885.1861      0.89831576     27000        
    188300   293.55981     -8730.4241      1420.1997     -7310.2244     -1421.7481      0.89831576     27000        
    188400   303.65326     -8799.0834      1469.0303     -7330.053      -2327.2305      0.89831576     27000        
    188500   285.84774     -8737.9327      1382.8898     -7355.0428     -1981.4394      0.89831576     27000        
    188600   294.3955      -8798.9906      1424.2426     -7374.7479     -2108.1527      0.89831576     27000        
    188700   291.52858     -8798.9332      1410.3729     -7388.5603     -1851.0347      0.89831576     27000        
    188800   292.15811     -8809.3665      1413.4185     -7395.948      -989.6979       0.89831576     27000        
    188900   290.11692     -8801.8888      1403.5435     -7398.3452     -1135.6643      0.89831576     27000        
    189000   287.01777     -8787.5125      1388.5503     -7398.9622     -1267.9193      0.89831576     27000        
    189100   300.23304     -8850.1878      1452.4838     -7397.7039     -1530.843       0.89831576     27000        
    189200   294.80252     -8823.555       1426.2118     -7397.3433     -1586.0012      0.89831576     27000        
    189300   293.63386     -8815.0282      1420.5579     -7394.4703     -1899.2192      0.89831576     27000        
    189400   291.2188      -8797.3573      1408.8742     -7388.4831     -1814.7733      0.89831576     27000        
    189500   282.61264     -8746.3625      1367.2389     -7379.1236     -1583.3925      0.89831576     27000        
    189600   296.00996     -8796.24        1432.0532     -7364.1868     -1820.3906      0.89831576     27000        
    189700   295.43081     -8779.2606      1429.2513     -7350.0093     -1346.9974      0.89831576     27000        
    189800   295.98102     -8770.6605      1431.9132     -7338.7473     -881.30041      0.89831576     27000        
    189900   295.40821     -8759.2928      1429.142      -7330.1508     -1511.3859      0.89831576     27000        
    190000   301.66651     -8784.7329      1459.4188     -7325.3141     -1519.0646      0.89831576     27000        
    190100   296.93291     -8759.4536      1436.5183     -7322.9353     -1954.994       0.89831576     27000        
    190200   297.92806     -8763.8667      1441.3327     -7322.534      -1804.2643      0.89831576     27000        
    190300   299.15236     -8770.8068      1447.2557     -7323.5511     -2008.1688      0.89831576     27000        
    190400   305.007       -8799.9181      1475.5795     -7324.3385     -2448.2557      0.89831576     27000        
    190500   306.57453     -8809.3179      1483.163      -7326.1548     -1274.8608      0.89831576     27000        
    190600   303.93449     -8800.631       1470.3909     -7330.2401     -874.182        0.89831576     27000        
    190700   293.18687     -8754.1803      1418.3955     -7335.7848     -490.30219      0.89831576     27000        
    190800   300.78982     -8795.5265      1455.1774     -7340.3491     -976.08161      0.89831576     27000        
    190900   301.08055     -8803.3319      1456.5839     -7346.7479     -1087.3104      0.89831576     27000        
    191000   296.28826     -8790.0154      1433.3996     -7356.6158     -1318.6588      0.89831576     27000        
    191100   303.78379     -8840.3532      1469.6618     -7370.6914     -1302.9731      0.89831576     27000        
    191200   296.73427     -8827.5314      1435.5573     -7391.9741     -1126.6403      0.89831576     27000        
    191300   302.36018     -8880.8925      1462.7746     -7418.1179     -1560.856       0.89831576     27000        
    191400   284.73301     -8817.135       1377.4969     -7439.6381     -1353.8623      0.89831576     27000        
    191500   288.05154     -8844.8054      1393.5515     -7451.2538     -1366.0585      0.89831576     27000        
    191600   294.80147     -8881.8053      1426.2067     -7455.5986     -1316.8141      0.89831576     27000        
    191700   291.61724     -8866.2282      1410.8018     -7455.4264     -1302.2742      0.89831576     27000        
    191800   287.12162     -8841.0856      1389.0527     -7452.0329     -1893.3364      0.89831576     27000        
    191900   291.84695     -8857.263       1411.9132     -7445.3498     -2018.5325      0.89831576     27000        
    192000   293.64698     -8859.0848      1420.6214     -7438.4634     -1385.3464      0.89831576     27000        
    192100   297.57685     -8869.2873      1439.6336     -7429.6537     -1788.4129      0.89831576     27000        
    192200   294.85786     -8848.4363      1426.4795     -7421.9568     -1741.8753      0.89831576     27000        
    192300   299.69543     -8864.1299      1449.8829     -7414.2469     -1493.5307      0.89831576     27000        
    192400   302.25806     -8870.7391      1462.2806     -7408.4585     -1495.5952      0.89831576     27000        
    192500   300.31383     -8857.962       1452.8747     -7405.0873     -2248.2154      0.89831576     27000        
    192600   289.51001     -8803.3517      1400.6074     -7402.7443     -2215.5376      0.89831576     27000        
    192700   287.77024     -8788.6205      1392.1906     -7396.4299     -1716.5757      0.89831576     27000        
    192800   291.06413     -8792.5122      1408.126      -7384.3862     -1340.8652      0.89831576     27000        
    192900   305.38216     -8841.5641      1477.3945     -7364.1696     -1170.3108      0.89831576     27000        
    193000   301.00199     -8795.648       1456.2039     -7339.444      -1365.9685      0.89831576     27000        
    193100   299.16431     -8763.6084      1447.3135     -7316.2949     -1695.404       0.89831576     27000        
    193200   299.36146     -8747.7125      1448.2672     -7299.4452     -1038.165       0.89831576     27000        
    193300   302.56922     -8753.428       1463.7859     -7289.642      -1983.1659      0.89831576     27000        
    193400   306.61138     -8768.1129      1483.3413     -7284.7716     -2210.187       0.89831576     27000        
    193500   303.39724     -8751.0132      1467.7918     -7283.2214     -1708.0318      0.89831576     27000        
    193600   299.40907     -8731.5869      1448.4976     -7283.0893     -1782.3711      0.89831576     27000        
    193700   301.30874     -8741.1738      1457.6879     -7283.4859     -1665.9269      0.89831576     27000        
    193800   299.39956     -8733.825       1448.4516     -7285.3734     -1877.0412      0.89831576     27000        
    193900   304.08889     -8759.7952      1471.1379     -7288.6573     -1265.1871      0.89831576     27000        
    194000   310.21802     -8796.1114      1500.7897     -7295.3216     -1690.3242      0.89831576     27000        
    194100   303.15808     -8774.1744      1466.6348     -7307.5397     -2280.7555      0.89831576     27000        
    194200   305.25991     -8798.5333      1476.8031     -7321.7301     -2147.5633      0.89831576     27000        
    194300   293.62651     -8755.5778      1420.5224     -7335.0554     -1602.3485      0.89831576     27000        
    194400   297.20477     -8783.2844      1437.8335     -7345.4509     -1606.9445      0.89831576     27000        
    194500   284.89989     -8732.1679      1378.3043     -7353.8637     -873.53418      0.89831576     27000        
    194600   296.14441     -8791.3328      1432.7036     -7358.6291     -1447.9625      0.89831576     27000        
    194700   295.17337     -8790.9283      1428.0059     -7362.9224     -1426.5316      0.89831576     27000        
    194800   297.61276     -8804.8808      1439.8073     -7365.0735     -1726.5274      0.89831576     27000        
    194900   289.62523     -8767.6703      1401.1648     -7366.5055     -2009.3985      0.89831576     27000        
    195000   286.46084     -8746.9966      1385.8559     -7361.1407     -2333.5559      0.89831576     27000        
    195100   291.80489     -8757.4668      1411.7096     -7345.7572     -1904.2444      0.89831576     27000        
    195200   299.81598     -8766.2096      1450.4661     -7315.7435     -2098.4126      0.89831576     27000        
    195300   295.45019     -8714.7193      1429.3451     -7285.3742     -1079.9302      0.89831576     27000        
    195400   302.28748     -8731.1373      1462.4229     -7268.7144     -1320.5005      0.89831576     27000        
    195500   301.59298     -8721.8682      1459.063      -7262.8052     -1253.3107      0.89831576     27000        
    195600   305.13037     -8738.1684      1476.1764     -7261.992      -1328.0726      0.89831576     27000        
    195700   316.52416     -8797.3538      1531.2979     -7266.0559     -1311.7482      0.89831576     27000        
    195800   302.63937     -8740.4992      1464.1253     -7276.3739     -1179.2596      0.89831576     27000        
    195900   298.0824      -8730.9188      1442.0794     -7288.8395     -1393.1651      0.89831576     27000        
    196000   299.6079      -8751.6532      1449.4595     -7302.1937     -1833.394       0.89831576     27000        
    196100   296.52375     -8748.2852      1434.5388     -7313.7464     -1726.8624      0.89831576     27000        
    196200   296.44583     -8756.7525      1434.1619     -7322.5906     -1841.0701      0.89831576     27000        
    196300   296.43777     -8763.1729      1434.1229     -7329.05       -1684.4558      0.89831576     27000        
    196400   304.69772     -8809.5704      1474.0833     -7335.4871     -1586.2828      0.89831576     27000        
    196500   305.3634      -8822.3317      1477.3038     -7345.0279     -2479.3784      0.89831576     27000        
    196600   294.20576     -8778.9952      1423.3247     -7355.6704     -1778.1249      0.89831576     27000        
    196700   290.82762     -8770.9682      1406.9818     -7363.9864     -1873.6794      0.89831576     27000        
    196800   288.05486     -8763.2469      1393.5676     -7369.6793     -2114.0904      0.89831576     27000        
    196900   286.10532     -8754.8501      1384.136      -7370.7141     -2255.1018      0.89831576     27000        
    197000   285.74928     -8748.9138      1382.4135     -7366.5003     -2444.2697      0.89831576     27000        
    197100   299.71148     -8804.5444      1449.9606     -7354.5838     -2352.491       0.89831576     27000        
    197200   302.00062     -8799.2423      1461.0351     -7338.2072     -2081.806       0.89831576     27000        
    197300   312.00179     -8829.6181      1509.4193     -7320.1988     -1498.3939      0.89831576     27000        
    197400   305.08218     -8782.2347      1475.9433     -7306.2914     -1397.3592      0.89831576     27000        
    197500   300.86376     -8752.1667      1455.5352     -7296.6316     -1531.5557      0.89831576     27000        
    197600   297.91459     -8730.5397      1441.2675     -7289.2722     -1951.6584      0.89831576     27000        
    197700   307.47454     -8770.2454      1487.5171     -7282.7282     -2044.2132      0.89831576     27000        
    197800   308.97972     -8773.6875      1494.799      -7278.8885     -1631.969       0.89831576     27000        
    197900   304.90671     -8754.3691      1475.0944     -7279.2747     -948.44677      0.89831576     27000        
    198000   302.31092     -8750.7266      1462.5363     -7288.1903     -1157.8466      0.89831576     27000        
    198100   298.01659     -8751.7855      1441.761      -7310.0245     -1816.4895      0.89831576     27000        
    198200   301.81249     -8801.4726      1460.125      -7341.3476     -1639.975       0.89831576     27000        
    198300   299.23837     -8816.0187      1447.6718     -7368.347      -1947.7903      0.89831576     27000        
    198400   296.80402     -8820.7044      1435.8947     -7384.8096     -1808.8669      0.89831576     27000        
    198500   288.75767     -8790.0189      1396.9676     -7393.0512     -1829.3643      0.89831576     27000        
    198600   302.41543     -8857.8208      1463.0419     -7394.7789     -1888.9682      0.89831576     27000        
    198700   297.22912     -8832.4849      1437.9513     -7394.5336     -1689.0952      0.89831576     27000        
    198800   292.36331     -8807.6702      1414.4112     -7393.2589     -1453.4774      0.89831576     27000        
    198900   293.19568     -8810.6602      1418.4381     -7392.2221     -1186.981       0.89831576     27000        
    199000   295.05444     -8818.3096      1427.4305     -7390.8791     -1382.0753      0.89831576     27000        
    199100   300.6186      -8842.8933      1454.3491     -7388.5442     -1669.9769      0.89831576     27000        
    199200   298.03897     -8828.2027      1441.8692     -7386.3335     -1224.3741      0.89831576     27000        
    199300   292.48048     -8796.4848      1414.9781     -7381.5068     -1698.9634      0.89831576     27000        
    199400   293.61885     -8791.6576      1420.4853     -7371.1723     -1852.8526      0.89831576     27000        
    199500   297.93208     -8798.9242      1441.3521     -7357.572      -1978.5848      0.89831576     27000        
    199600   307.56367     -8831.1009      1487.9484     -7343.1525     -1430.3375      0.89831576     27000        
    199700   293.82548     -8753.4932      1421.485      -7332.0082     -1721.7561      0.89831576     27000        
    199800   300.83623     -8776.9892      1455.402      -7321.5872     -1717.6818      0.89831576     27000        
    199900   307.36404     -8800.7025      1486.9826     -7313.7199     -1692.3846      0.89831576     27000        
    200000   300.6824      -8765.0505      1454.6578     -7310.3927     -1482.0887      0.89831576     27000        
Loop time of 486.725 on 8 procs for 200000 steps with 2424 atoms

Performance: 17.751 ns/day, 1.352 hours/ns, 410.910 timesteps/s, 996.045 katom-step/s
99.6% CPU use with 8 MPI tasks x 1 OpenMP threads

MPI task timing breakdown:
Section |  min time  |  avg time  |  max time  |%varavg| %total
---------------------------------------------------------------
Pair    | 313.29     | 334.58     | 350.29     |  64.4 | 68.74
Bond    | 0.10665    | 0.60041    | 2.8232     | 111.1 |  0.12
Kspace  | 82.123     | 97.168     | 118.6      | 117.5 | 19.96
Neigh   | 12.092     | 12.097     | 12.105     |   0.1 |  2.49
Comm    | 22.904     | 23.294     | 23.476     |   3.7 |  4.79
Output  | 0.4209     | 0.44831    | 0.52646    |   4.7 |  0.09
Modify  | 17.041     | 17.126     | 17.21      |   1.5 |  3.52
Other   |            | 1.409      |            |       |  0.29

Nlocal:            303 ave         321 max         288 min
Histogram: 1 1 0 3 0 1 0 0 0 2
Nghost:           5007 ave        5047 max        4958 min
Histogram: 1 0 1 1 0 2 1 0 0 2
Neighs:        98323.5 ave      107132 max       91600 min
Histogram: 1 1 2 0 1 1 0 0 1 1

Total # of neighbors = 786588
Ave neighs/atom = 324.5
Ave special neighs/atom = 2.0742574
Neighbor list builds = 4586
Dangerous builds = 0

write_data      nvt_direct_controlled_final.data
System init for write_data ...
PPPM initialization ...
  using 12-bit tables for long-range coulomb (src/src/kspace.cpp:342)
  G vector (1/distance) = 0.26644127
  grid = 16 16 16
  stencil order = 5
  estimated absolute RMS force accuracy = 0.026206477
  estimated relative force accuracy = 7.8920029e-05
  using double precision FFTW3
  3d grid and FFT values/proc = 3375 512
Generated 325 of 325 mixed pair_coeff terms from geometric mixing rule
Total wall time: 0:08:06
