LAMMPS (22 Jul 2025 - Update 1)
  using 1 OpenMP thread(s) per MPI task
# =========================================================
# Conservative NVT production
# System: caffeine + SPC/E water
# Starting point: NPT-equilibrated structure
# =========================================================

include         in.common
units real
atom_style full
boundary p p p

pair_style      lj/cut/coul/long 10.0 10.0
pair_modify     mix geometric tail no
bond_style      harmonic
angle_style     harmonic
dihedral_style  opls
improper_style  cvff
kspace_style    pppm 1.0e-4
special_bonds   lj/coul 0.0 0.0 0.5
neighbor        2.0 bin
neigh_modify    every 1 delay 0 check yes
read_data       npt_eq_final.data
Reading data file ...
  orthogonal box = (0.46844179 0.49244279 0.44294179) to (29.530558 29.554559 29.505058)
  1 by 1 by 1 MPI processor grid
  reading atoms ...
  2424 atoms
  reading velocities ...
  2424 velocities
  scanning bonds ...
  2 = max bonds/atom
  scanning angles ...
  6 = max angles/atom
  scanning dihedrals ...
  7 = max dihedrals/atom
  scanning impropers ...
  4 = max impropers/atom
  orthogonal box = (0.46844179 0.49244279 0.44294179) to (29.530558 29.554559 29.505058)
  1 by 1 by 1 MPI processor grid
  reading bonds ...
  1625 bonds
  reading angles ...
  843 angles
  reading dihedrals ...
  54 dihedrals
  reading impropers ...
  14 impropers
Finding 1-2 1-3 1-4 neighbors ...
  special bond factors lj:    0        0        0.5     
  special bond factors coul:  0        0        0.5     
     4 = max # of 1-2 neighbors
     7 = max # of 1-3 neighbors
    16 = max # of 1-4 neighbors
    16 = max # of special neighbors
  special bonds CPU = 0.001 seconds
  read_data CPU = 0.049 seconds

# ---------------- Groups ----------------
group           caffeine molecule 1
24 atoms in group caffeine
group           water type 25 26
2400 atoms in group water

# ---------------- Constraints ----------------
fix             fxShake water shake 1.0e-4 200 0 b 26 a 44
Finding SHAKE clusters ...
       0 = # of size 2 clusters
       0 = # of size 3 clusters
       0 = # of size 4 clusters
     800 = # of frozen angles
  find clusters CPU = 0.001 seconds

# ---------------- Initialization ----------------
reset_timestep  0
timestep        0.5

# ---------------- Output ----------------
thermo          100
thermo_style    custom step temp pe ke etotal press density vol
thermo_modify   flush yes

dump            d1 all custom 1000 nvt_prod.lammpstrj id mol type q x y z vx vy vz
dump_modify     d1 sort id

# Optional restart files
restart         50000 nvt_prod.restart1 nvt_prod.restart2

# ---------------- NVT production ----------------
fix             fxNVT all nvt temp 298.0 298.0 200.0
run             200000
PPPM initialization ...
WARNING: System is not charge neutral, net charge = -0.0002
For more information see https://docs.lammps.org/err0029 (src/kspace.cpp:330)
  using 12-bit tables for long-range coulomb
  G vector (1/distance) = 0.26366352
  grid = 15 15 15
  stencil order = 5
  estimated absolute RMS force accuracy = 0.031845615
  estimated relative force accuracy = 9.5902122e-05
  using double precision FFTW3
  3d grid and FFT values/proc = 10648 3375
Generated 325 of 325 mixed pair_coeff terms from geometric mixing rule
Neighbor list info ...
  update: every = 1 steps, delay = 0 steps, check = yes
  max neighbors/atom: 2000, page size: 100000
  master list distance cutoff = 12
  ghost atom cutoff = 12
  binsize = 6, bins = 5 5 5
  1 neighbor lists, perpetual/occasional/extra = 1 0 0
  (1) pair lj/cut/coul/long, perpetual
      attributes: half, newton on
      pair build: half/bin/newton
      stencil: half/bin/3d
      bin: standard
Per MPI rank memory allocation (min/avg/max) = 17.98 | 17.98 | 17.98 Mbytes
   Step          Temp          PotEng         KinEng         TotEng         Press         Density         Volume    
         0   290.48548     -8942.1732      1405.3266     -7536.8467      31.758781      0.98812314     24546.056    
       100   291.45017     -8947.3935      1409.9936     -7537.3999      346.14223      0.98812314     24546.056    
       200   294.58877     -8960.3397      1425.1777     -7535.162      -414.45695      0.98812314     24546.056    
       300   304.70466     -9004.8499      1474.1169     -7530.733       437.85743      0.98812314     24546.056    
       400   299.68193     -8976.6789      1449.8176     -7526.8612      589.04072      0.98812314     24546.056    
       500   303.79664     -8993.7399      1469.724      -7524.0158      272.11471      0.98812314     24546.056    
       600   297.14077     -8959.6301      1437.5239     -7522.1063      280.14754      0.98812314     24546.056    
       700   297.09512     -8956.4675      1437.303      -7519.1645     -105.34796      0.98812314     24546.056    
       800   296.93141     -8949.0406      1436.511      -7512.5296      366.15056      0.98812314     24546.056    
       900   297.62824     -8943.8834      1439.8822     -7504.0012      370.48966      0.98812314     24546.056    
      1000   291.10009     -8902.3651      1408.2999     -7494.0652      313.85371      0.98812314     24546.056    
      1100   294.48413     -8904.6889      1424.6714     -7480.0174     -347.22083      0.98812314     24546.056    
      1200   300.9224      -8918.2511      1455.8188     -7462.4323     -827.5702       0.98812314     24546.056    
      1300   297.83735     -8885.204       1440.8938     -7444.3102     -557.16463      0.98812314     24546.056    
      1400   298.22906     -8872.331       1442.7889     -7429.5422     -857.02321      0.98812314     24546.056    
      1500   300.76174     -8874.2148      1455.0416     -7419.1731     -212.63722      0.98812314     24546.056    
      1600   312.21561     -8924.924       1510.4537     -7414.4703     -70.926385      0.98812314     24546.056    
      1700   308.34123     -8907.874       1491.7101     -7416.164      -73.583116      0.98812314     24546.056    
      1800   307.98721     -8913.1283      1489.9974     -7423.131      -388.87891      0.98812314     24546.056    
      1900   299.52811     -8884.3703      1449.0735     -7435.2968      308.76382      0.98812314     24546.056    
      2000   300.38396     -8902.3286      1453.214      -7449.1146     -261.81146      0.98812314     24546.056    
      2100   302.13247     -8924.7659      1461.673      -7463.093       651.95711      0.98812314     24546.056    
      2200   298.94523     -8925.4818      1446.2536     -7479.2282      1049.7899      0.98812314     24546.056    
      2300   306.33626     -8975.9912      1482.0103     -7493.9809     -81.570497      0.98812314     24546.056    
      2400   296.90445     -8941.5797      1436.3806     -7505.1991     -260.32995      0.98812314     24546.056    
      2500   300.86477     -8967.6691      1455.54       -7512.1291     -397.535        0.98812314     24546.056    
      2600   296.55607     -8951.8731      1434.6952     -7517.178       5.9236318      0.98812314     24546.056    
      2700   301.83661     -8982.7346      1460.2417     -7522.4929      511.48124      0.98812314     24546.056    
      2800   292.93001     -8945.2425      1417.1528     -7528.0897      148.15778      0.98812314     24546.056    
      2900   301.77308     -8992.0719      1459.9343     -7532.1376     -139.70691      0.98812314     24546.056    
      3000   299.32648     -8982.4864      1448.098      -7534.3884     -411.46898      0.98812314     24546.056    
      3100   296.79008     -8971.9278      1435.8273     -7536.1005     -847.29591      0.98812314     24546.056    
      3200   292.58034     -8951.7916      1415.4612     -7536.3304     -526.12236      0.98812314     24546.056    
      3300   290.4096      -8939.6712      1404.9595     -7534.7117      84.435097      0.98812314     24546.056    
      3400   296.04321     -8960.8286      1432.2141     -7528.6145     -93.027064      0.98812314     24546.056    
      3500   292.50352     -8931.5417      1415.0895     -7516.4522     -34.428535      0.98812314     24546.056    
      3600   297.21489     -8935.9511      1437.8825     -7498.0686      71.053756      0.98812314     24546.056    
      3700   300.78482     -8931.8825      1455.1533     -7476.7292      533.36241      0.98812314     24546.056    
      3800   302.12999     -8919.4779      1461.661      -7457.8169      322.93768      0.98812314     24546.056    
      3900   298.55579     -8891.0997      1444.3695     -7446.7302     -311.24542      0.98812314     24546.056    
      4000   304.76542     -8914.991       1474.4108     -7440.5802     -589.73753      0.98812314     24546.056    
      4100   292.35965     -8851.1154      1414.3935     -7436.7219     -408.97619      0.98812314     24546.056    
      4200   299.26929     -8881.3892      1447.8214     -7433.5679     -476.25408      0.98812314     24546.056    
      4300   302.05406     -8893.1141      1461.2937     -7431.8205     -18.811804      0.98812314     24546.056    
      4400   306.066       -8914.306       1480.7029     -7433.6031      118.10695      0.98812314     24546.056    
      4500   305.25908     -8914.7637      1476.7991     -7437.9646      430.85162      0.98812314     24546.056    
      4600   293.48786     -8864.8509      1419.8516     -7444.9993      800.50125      0.98812314     24546.056    
      4700   293.09185     -8870.372       1417.9358     -7452.4361      580.19994      0.98812314     24546.056    
      4800   298.61938     -8902.4436      1444.6772     -7457.7664      180.01987      0.98812314     24546.056    
      4900   303.19816     -8929.4979      1466.8287     -7462.6693      85.692426      0.98812314     24546.056    
      5000   297.39627     -8905.2557      1438.7599     -7466.4958     -108.47699      0.98812314     24546.056    
      5100   297.92797     -8909.2972      1441.3322     -7467.965      -241.15926      0.98812314     24546.056    
      5200   299.15356     -8914.8783      1447.2615     -7467.6169     -90.042205      0.98812314     24546.056    
      5300   294.28867     -8891.0468      1423.7258     -7467.321       113.71227      0.98812314     24546.056    
      5400   297.70783     -8905.7371      1440.2672     -7465.4699     -401.71191      0.98812314     24546.056    
      5500   308.04381     -8953.232       1490.2712     -7462.9608     -247.34004      0.98812314     24546.056    
      5600   303.89783     -8932.2903      1470.2136     -7462.0767     -55.301182      0.98812314     24546.056    
      5700   307.03763     -8949.3329      1485.4035     -7463.9295      448.33554      0.98812314     24546.056    
      5800   307.25863     -8956.468       1486.4726     -7469.9954      180.8432       0.98812314     24546.056    
      5900   300.11998     -8932.0487      1451.9369     -7480.1119      259.80691      0.98812314     24546.056    
      6000   298.05773     -8934.3694      1441.96       -7492.4094     -208.00243      0.98812314     24546.056    
      6100   296.48662     -8938.8566      1434.3592     -7504.4974     -57.998005      0.98812314     24546.056    
      6200   293.78325     -8936.5247      1421.2807     -7515.244       171.70372      0.98812314     24546.056    
      6300   294.00809     -8946.2274      1422.3684     -7523.859       436.75685      0.98812314     24546.056    
      6400   294.82636     -8957.2623      1426.3271     -7530.9352      98.404942      0.98812314     24546.056    
      6500   293.40851     -8955.5289      1419.4677     -7536.0612     -389.87499      0.98812314     24546.056    
      6600   289.83133     -8941.2747      1402.1618     -7539.1128      820.20459      0.98812314     24546.056    
      6700   300.82521     -8995.0909      1455.3487     -7539.7423      994.59158      0.98812314     24546.056    
      6800   298.43681     -8982.7477      1443.7939     -7538.9538      569.15541      0.98812314     24546.056    
      6900   301.51412     -8995.1839      1458.6815     -7536.5024      101.8148       0.98812314     24546.056    
      7000   294.91317     -8960.1833      1426.7471     -7533.4362      590.32924      0.98812314     24546.056    
      7100   290.08547     -8933.6669      1403.3913     -7530.2756      695.08164      0.98812314     24546.056    
      7200   290.46962     -8928.9508      1405.2498     -7523.701       207.80284      0.98812314     24546.056    
      7300   294.36795     -8934.7236      1424.1094     -7510.6142      121.09177      0.98812314     24546.056    
      7400   305.91616     -8972.5817      1479.9779     -7492.6038      149.30109      0.98812314     24546.056    
      7500   298.61376     -8918.8622      1444.65       -7474.2122     -148.77104      0.98812314     24546.056    
      7600   302.41757     -8919.8474      1463.0523     -7456.7951     -345.73916      0.98812314     24546.056    
      7700   310.97102     -8947.6884      1504.4326     -7443.2557      194.67252      0.98812314     24546.056    
      7800   308.22475     -8925.8778      1491.1466     -7434.7313      588.65152      0.98812314     24546.056    
      7900   301.63301     -8891.1558      1459.2567     -7431.8991      125.9173       0.98812314     24546.056    
      8000   307.18748     -8917.3193      1486.1284     -7431.1909      316.80419      0.98812314     24546.056    
      8100   310.04844     -8932.3061      1499.9693     -7432.3367      52.837661      0.98812314     24546.056    
      8200   297.14659     -8873.6299      1437.552      -7436.0778     -288.31353      0.98812314     24546.056    
      8300   292.46989     -8855.2514      1414.9268     -7440.3246     -829.28227      0.98812314     24546.056    
      8400   295.95945     -8874.2024      1431.8088     -7442.3936     -628.6172       0.98812314     24546.056    
      8500   297.04848     -8882.0914      1437.0774     -7445.014      -895.23695      0.98812314     24546.056    
      8600   298.32469     -8891.4606      1443.2515     -7448.2091     -212.78367      0.98812314     24546.056    
      8700   296.87196     -8893.2098      1436.2234     -7456.9864      127.72052      0.98812314     24546.056    
      8800   298.38688     -8916.8562      1443.5524     -7473.3038      432.10453      0.98812314     24546.056    
      8900   290.90417     -8904.8306      1407.3521     -7497.4785      685.67113      0.98812314     24546.056    
      9000   296.44043     -8957.9323      1434.1357     -7523.7966     -523.74706      0.98812314     24546.056    
      9100   298.08863     -8986.5134      1442.1095     -7544.4039     -777.69423      0.98812314     24546.056    
      9200   297.1716      -8997.5851      1437.673      -7559.9121     -566.62105      0.98812314     24546.056    
      9300   300.37301     -9023.0057      1453.161      -7569.8447     -339.51104      0.98812314     24546.056    
      9400   289.44533     -8977.4065      1400.2944     -7577.112       974.33058      0.98812314     24546.056    
      9500   300.85546     -9035.9538      1455.495      -7580.4588     -26.169443      0.98812314     24546.056    
      9600   289.42986     -8981.844       1400.2196     -7581.6244     -546.57686      0.98812314     24546.056    
      9700   291.28738     -8988.5852      1409.206      -7579.3792      342.8389       0.98812314     24546.056    
      9800   303.54651     -9043.2263      1468.5139     -7574.7123      73.942916      0.98812314     24546.056    
      9900   296.43261     -9003.1049      1434.0979     -7569.0071     -811.26466      0.98812314     24546.056    
     10000   290.47049     -8964.9616      1405.254      -7559.7075     -296.65552      0.98812314     24546.056    
     10100   297.35496     -8985.0726      1438.5601     -7546.5126     -29.518993      0.98812314     24546.056    
     10200   300.07825     -8983.7542      1451.735      -7532.0193     -209.5795       0.98812314     24546.056    
     10300   293.97152     -8938.8465      1422.1915     -7516.655      -355.9474       0.98812314     24546.056    
     10400   308.08621     -8992.3115      1490.4763     -7501.8351     -335.81686      0.98812314     24546.056    
     10500   304.24403     -8963.5819      1471.8884     -7491.6934     -268.81069      0.98812314     24546.056    
     10600   302.73679     -8950.1614      1464.5966     -7485.5648     -508.6621       0.98812314     24546.056    
     10700   296.9644      -8918.2707      1436.6706     -7481.6001     -70.670926      0.98812314     24546.056    
     10800   301.2703      -8936.6738      1457.5019     -7479.1719     -560.53643      0.98812314     24546.056    
     10900   301.91695     -8939.6825      1460.6303     -7479.0521     -498.45813      0.98812314     24546.056    
     11000   303.68438     -8950.0038      1469.1809     -7480.8229     -55.462864      0.98812314     24546.056    
     11100   304.34306     -8955.0562      1472.3675     -7482.6887      239.46901      0.98812314     24546.056    
     11200   298.22808     -8929.8227      1442.7841     -7487.0386      176.82246      0.98812314     24546.056    
     11300   301.654       -8953.3661      1459.3582     -7494.0078      25.104828      0.98812314     24546.056    
     11400   296.07437     -8937.2746      1432.3648     -7504.9099      669.34214      0.98812314     24546.056    
     11500   301.54642     -8981.2598      1458.8378     -7522.422       488.4743       0.98812314     24546.056    
     11600   295.50403     -8983.4868      1429.6056     -7553.8812      251.35468      0.98812314     24546.056    
     11700   284.9997      -8965.2976      1378.7872     -7586.5105      22.735248      0.98812314     24546.056    
     11800   283.6156      -8976.8698      1372.0911     -7604.7788      74.64741       0.98812314     24546.056    
     11900   291.10136     -9018.5757      1408.3061     -7610.2696      222.45261      0.98812314     24546.056    
     12000   298.78309     -9055.7731      1445.4692     -7610.304      -341.41681      0.98812314     24546.056    
     12100   292.89512     -9024.213       1416.9841     -7607.229      -260.08992      0.98812314     24546.056    
     12200   297.3074      -9037.3598      1438.33       -7599.0298     -128.70349      0.98812314     24546.056    
     12300   293.83036     -9009.6165      1421.5086     -7588.1079      2.6620338      0.98812314     24546.056    
     12400   290.9895      -8980.7674      1407.7649     -7573.0025      639.73633      0.98812314     24546.056    
     12500   294.70878     -8981.8198      1425.7582     -7556.0615     -8.3588697      0.98812314     24546.056    
     12600   302.00368     -9002.8571      1461.0499     -7541.8072     -233.68797      0.98812314     24546.056    
     12700   302.17754     -8992.7655      1461.8911     -7530.8744     -265.80379      0.98812314     24546.056    
     12800   292.34841     -8936.8281      1414.3391     -7522.489      -300.66378      0.98812314     24546.056    
     12900   307.00149     -8999.7334      1485.2286     -7514.5048     -119.7322       0.98812314     24546.056    
     13000   297.53027     -8950.6024      1439.4082     -7511.1942     -16.280169      0.98812314     24546.056    
     13100   299.97911     -8960.2075      1451.2553     -7508.9522     -164.22801      0.98812314     24546.056    
     13200   291.9594      -8918.8522      1412.4572     -7506.3951      29.721499      0.98812314     24546.056    
     13300   294.28972     -8926.9243      1423.7309     -7503.1934     -583.26028      0.98812314     24546.056    
     13400   297.79377     -8939.2596      1440.683      -7498.5766     -97.146569      0.98812314     24546.056    
     13500   296.88391     -8929.1602      1436.2812     -7492.879       548.08086      0.98812314     24546.056    
     13600   305.60181     -8966.6274      1478.4571     -7488.1703     -158.96521      0.98812314     24546.056    
     13700   307.19678     -8970.6592      1486.1734     -7484.4858     -253.61727      0.98812314     24546.056    
     13800   302.57047     -8944.9801      1463.792      -7481.1881      82.71245       0.98812314     24546.056    
     13900   298.90279     -8923.4492      1446.0483     -7477.4009      145.80694      0.98812314     24546.056    
     14000   307.64422     -8965.1981      1488.338      -7476.8601      189.70993      0.98812314     24546.056    
     14100   309.93728     -8982.1792      1499.4315     -7482.7476      55.643908      0.98812314     24546.056    
     14200   301.93584     -8957.2727      1460.7217     -7496.551      -646.10183      0.98812314     24546.056    
     14300   290.09777     -8915.9675      1403.4509     -7512.5166     -543.69316      0.98812314     24546.056    
     14400   297.19742     -8965.9067      1437.7979     -7528.1088     -815.9159       0.98812314     24546.056    
     14500   292.02478     -8954.1438      1412.7735     -7541.3703     -219.57201      0.98812314     24546.056    
     14600   295.88611     -8984.5784      1431.454      -7553.1244     -138.76999      0.98812314     24546.056    
     14700   290.53015     -8966.1302      1405.5426     -7560.5875     -659.84217      0.98812314     24546.056    
     14800   286.1897      -8949.6954      1384.5442     -7565.1513     -7.2028735      0.98812314     24546.056    
     14900   295.49009     -8996.0477      1429.5381     -7566.5096     -214.97217      0.98812314     24546.056    
     15000   291.66927     -8976.408       1411.0535     -7565.3544      361.64735      0.98812314     24546.056    
     15100   299.33527     -9010.1786      1448.1405     -7562.0381     -80.643707      0.98812314     24546.056    
     15200   291.50042     -8966.57        1410.2367     -7556.3333      621.88259      0.98812314     24546.056    
     15300   289.89746     -8950.0104      1402.4818     -7547.5287      1.1713156      0.98812314     24546.056    
     15400   296.19823     -8967.1487      1432.964      -7534.1847     -595.70765      0.98812314     24546.056    
     15500   303.65479     -8984.3091      1469.0378     -7515.2713     -889.4863       0.98812314     24546.056    
     15600   310.59777     -8999.9164      1502.6269     -7497.2895     -1001.8385      0.98812314     24546.056    
     15700   309.3059      -8978.9081      1496.377      -7482.531      -938.28595      0.98812314     24546.056    
     15800   302.58642     -8934.4734      1463.8692     -7470.6043     -837.24234      0.98812314     24546.056    
     15900   305.19846     -8941.0656      1476.5058     -7464.5598     -613.13574      0.98812314     24546.056    
     16000   305.43389     -8941.655       1477.6448     -7464.0102      141.27906      0.98812314     24546.056    
     16100   306.81796     -8951.4455      1484.3407     -7467.1048     -475.35004      0.98812314     24546.056    
     16200   301.21962     -8930.6921      1457.2568     -7473.4353     -77.967237      0.98812314     24546.056    
     16300   291.67029     -8895.4741      1411.0585     -7484.4156     -138.32508      0.98812314     24546.056    
     16400   295.52653     -8923.4162      1429.7144     -7493.7018     -80.198398      0.98812314     24546.056    
     16500   302.35973     -8965.2035      1462.7725     -7502.431      -558.31749      0.98812314     24546.056    
     16600   285.85224     -8894.4441      1382.9116     -7511.5325      99.435771      0.98812314     24546.056    
     16700   295.18858     -8947.0497      1428.0795     -7518.9702      122.92877      0.98812314     24546.056    
     16800   290.83616     -8935.5838      1407.0231     -7528.5607     -70.981081      0.98812314     24546.056    
     16900   294.8318      -8971.0853      1426.3534     -7544.7319      40.165739      0.98812314     24546.056    
     17000   287.67749     -8965.7599      1391.7419     -7574.0179      115.53148      0.98812314     24546.056    
     17100   291.65304     -9014.4682      1410.975      -7603.4932      358.48335      0.98812314     24546.056    
     17200   292.30907     -9036.0003      1414.1488     -7621.8514      473.45283      0.98812314     24546.056    
     17300   276.94229     -8971.5226      1339.8066     -7631.7161      558.52473      0.98812314     24546.056    
     17400   294.10889     -9057.8655      1422.8561     -7635.0094     -1132.5902      0.98812314     24546.056    
     17500   289.60466     -9033.5018      1401.0653     -7632.4365     -341.73115      0.98812314     24546.056    
     17600   288.73846     -9021.4834      1396.8747     -7624.6087      7.5657624      0.98812314     24546.056    
     17700   294.64448     -9037.7537      1425.4472     -7612.3065     -69.608596      0.98812314     24546.056    
     17800   293.12338     -9015.5956      1418.0883     -7597.5073      48.794301      0.98812314     24546.056    
     17900   292.19533     -8994.938       1413.5986     -7581.3394     -322.45667      0.98812314     24546.056    
     18000   289.56414     -8965.7128      1400.8692     -7564.8436      146.48968      0.98812314     24546.056    
     18100   295.60961     -8979.3976      1430.1164     -7549.2813     -447.68413      0.98812314     24546.056    
     18200   304.55915     -9009.2206      1473.4129     -7535.8077     -358.05428      0.98812314     24546.056    
     18300   295.27224     -8956.1931      1428.4842     -7527.7089      685.44361      0.98812314     24546.056    
     18400   295.63712     -8954.0931      1430.2494     -7523.8437      389.70049      0.98812314     24546.056    
     18500   307.18037     -9008.9287      1486.094      -7522.8347     -93.546993      0.98812314     24546.056    
     18600   293.43796     -8946.1213      1419.6102     -7526.5111      541.94485      0.98812314     24546.056    
     18700   297.45749     -8968.0808      1439.0561     -7529.0247      255.85155      0.98812314     24546.056    
     18800   298.00367     -8973.9488      1441.6984     -7532.2503      657.49053      0.98812314     24546.056    
     18900   297.97563     -8978.7837      1441.5628     -7537.2209      938.44963      0.98812314     24546.056    
     19000   296.43335     -8975.6102      1434.1015     -7541.5087      576.78591      0.98812314     24546.056    
     19100   298.56722     -8991.6972      1444.4248     -7547.2724     -444.48897      0.98812314     24546.056    
     19200   290.9071      -8961.6457      1407.3663     -7554.2794     -498.15343      0.98812314     24546.056    
     19300   297.21034     -8996.2333      1437.8604     -7558.3729     -469.48172      0.98812314     24546.056    
     19400   295.01655     -8990.3232      1427.2472     -7563.076       203.8416       0.98812314     24546.056    
     19500   293.54488     -8988.5303      1420.1275     -7568.4028     -668.61284      0.98812314     24546.056    
     19600   291.34367     -8983.3446      1409.4783     -7573.8663      0.738958       0.98812314     24546.056    
     19700   296.20047     -9013.2535      1432.9748     -7580.2787      152.99053      0.98812314     24546.056    
     19800   287.69574     -8977.6422      1391.8302     -7585.812       63.494208      0.98812314     24546.056    
     19900   281.54959     -8949.8323      1362.096      -7587.7363      404.92463      0.98812314     24546.056    
     20000   298.59592     -9029.3332      1444.5637     -7584.7695      86.555955      0.98812314     24546.056    
     20100   294.63648     -9005.4532      1425.4085     -7580.0447      196.65423      0.98812314     24546.056    
     20200   296.96069     -9010.0036      1436.6527     -7573.3509     -551.9109       0.98812314     24546.056    
     20300   292.32151     -8976.8328      1414.209      -7562.6238     -691.73487      0.98812314     24546.056    
     20400   297.86581     -8988.8536      1441.0315     -7547.8221     -467.39706      0.98812314     24546.056    
     20500   299.26644     -8979.5466      1447.8076     -7531.7391      50.228454      0.98812314     24546.056    
     20600   301.82719     -8975.4586      1460.1961     -7515.2626     -189.82048      0.98812314     24546.056    
     20700   301.82228     -8962.4979      1460.1723     -7502.3256      303.36469      0.98812314     24546.056    
     20800   302.02256     -8955.5432      1461.1412     -7494.4019     -333.77809      0.98812314     24546.056    
     20900   293.11019     -8907.2099      1418.0245     -7489.1854     -686.15211      0.98812314     24546.056    
     21000   298.67226     -8928.8786      1444.933      -7483.9455     -879.16091      0.98812314     24546.056    
     21100   301.29475     -8936.5924      1457.6202     -7478.9721     -982.31392      0.98812314     24546.056    
     21200   293.57114     -8895.3607      1420.2545     -7475.1062      86.726787      0.98812314     24546.056    
     21300   300.54914     -8926.0868      1454.0131     -7472.0737     -149.55576      0.98812314     24546.056    
     21400   296.77681     -8904.9631      1435.7631     -7469.2        -183.46204      0.98812314     24546.056    
     21500   304.75697     -8945.232       1474.3699     -7470.862      -556.13005      0.98812314     24546.056    
     21600   305.97285     -8958.8775      1480.2522     -7478.6254     -908.09431      0.98812314     24546.056    
     21700   302.16038     -8955.662       1461.808      -7493.854      -87.396185      0.98812314     24546.056    
     21800   295.40017     -8946.3935      1429.1031     -7517.2904      87.116222      0.98812314     24546.056    
     21900   299.77276     -8994.9605      1450.2571     -7544.7034     -351.0167       0.98812314     24546.056    
     22000   295.71495     -8997.0866      1430.626      -7566.4607     -708.69385      0.98812314     24546.056    
     22100   290.47722     -8985.0695      1405.2866     -7579.7829     -308.84672      0.98812314     24546.056    
     22200   294.32037     -9009.2956      1423.8792     -7585.4163     -1144.1047      0.98812314     24546.056    
     22300   292.20604     -9000.823       1413.6504     -7587.1726     -428.39276      0.98812314     24546.056    
     22400   292.31912     -9000.4982      1414.1974     -7586.3008     -596.8806       0.98812314     24546.056    
     22500   292.09676     -8994.2316      1413.1217     -7581.1099     -330.50511      0.98812314     24546.056    
     22600   299.51779     -9021.0029      1449.0235     -7571.9794     -302.77641      0.98812314     24546.056    
     22700   290.85565     -8967.3736      1407.1174     -7560.2562     -853.20057      0.98812314     24546.056    
     22800   296.26159     -8979.5362      1433.2705     -7546.2657     -288.46465      0.98812314     24546.056    
     22900   300.14009     -8981.9073      1452.0341     -7529.8732      292.43393      0.98812314     24546.056    
     23000   295.8352      -8948.3091      1431.2077     -7517.1014      1132.3938      0.98812314     24546.056    
     23100   301.80877     -8967.8428      1460.107      -7507.7358      549.20802      0.98812314     24546.056    
     23200   298.58769     -8945.0698      1444.5238     -7500.5459      564.01983      0.98812314     24546.056    
     23300   288.1053      -8889.9667      1393.8116     -7496.1551     -324.40306      0.98812314     24546.056    
     23400   287.76295     -8881.5638      1392.1553     -7489.4084     -963.48488      0.98812314     24546.056    
     23500   299.13643     -8929.4951      1447.1786     -7482.3165     -1206.3808      0.98812314     24546.056    
     23600   303.05635     -8943.0565      1466.1426     -7476.9139     -34.402625      0.98812314     24546.056    
     23700   300.23941     -8927.1674      1452.5146     -7474.6528     -604.53061      0.98812314     24546.056    
     23800   294.99083     -8900.7571      1427.1228     -7473.6343     -412.35528      0.98812314     24546.056    
     23900   295.50895     -8902.3148      1429.6294     -7472.6854     -64.786535      0.98812314     24546.056    
     24000   297.92743     -8911.1284      1441.3296     -7469.7988     -651.5624       0.98812314     24546.056    
     24100   299.3572      -8916.7671      1448.2467     -7468.5205     -519.01815      0.98812314     24546.056    
     24200   310.14145     -8969.0194      1500.4193     -7468.6002     -294.41432      0.98812314     24546.056    
     24300   306.57798     -8955.986       1483.1797     -7472.8063      287.0298       0.98812314     24546.056    
     24400   302.56626     -8949.1711      1463.7716     -7485.3995      542.71177      0.98812314     24546.056    
     24500   297.68703     -8948.8834      1440.1666     -7508.7168      137.28145      0.98812314     24546.056    
     24600   286.89816     -8924.8739      1387.9716     -7536.9023      238.62843      0.98812314     24546.056    
     24700   296.24752     -8991.5436      1433.2025     -7558.3411     -752.89721      0.98812314     24546.056    
     24800   289.59365     -8970.3506      1401.012      -7569.3386     -238.12523      0.98812314     24546.056    
     24900   287.31067     -8963.6531      1389.9673     -7573.6858     -229.16333      0.98812314     24546.056    
     25000   291.54311     -8982.9         1410.4432     -7572.4568      815.43467      0.98812314     24546.056    
     25100   295.73214     -8999.1626      1430.7091     -7568.4534     -357.21904      0.98812314     24546.056    
     25200   291.91042     -8976.6044      1412.2202     -7564.3842     -467.71029      0.98812314     24546.056    
     25300   299.40749     -9006.1727      1448.4899     -7557.6827     -169.1892       0.98812314     24546.056    
     25400   286.53983     -8934.4855      1386.2381     -7548.2474      241.00088      0.98812314     24546.056    
     25500   286.7334      -8921.9168      1387.1746     -7534.7423     -15.103688      0.98812314     24546.056    
     25600   294.33886     -8942.9797      1423.9687     -7519.0111      65.019846      0.98812314     24546.056    
     25700   298.98585     -8950.5         1446.4501     -7504.0499      423.79143      0.98812314     24546.056    
     25800   297.13232     -8929.7893      1437.483      -7492.3063      188.05434      0.98812314     24546.056    
     25900   294.63575     -8907.4346      1425.4049     -7482.0297      151.55192      0.98812314     24546.056    
     26000   295.31749     -8900.4809      1428.7031     -7471.7778     -243.63812      0.98812314     24546.056    
     26100   294.31557     -8887.2034      1423.856      -7463.3474      52.993159      0.98812314     24546.056    
     26200   298.02063     -8897.1287      1441.7805     -7455.3482     -276.88341      0.98812314     24546.056    
     26300   303.94428     -8918.339       1470.4383     -7447.9008      493.22556      0.98812314     24546.056    
     26400   301.76132     -8901.3114      1459.8774     -7441.434      -47.116159      0.98812314     24546.056    
     26500   309.30343     -8935.0445      1496.3651     -7438.6795     -24.824173      0.98812314     24546.056    
     26600   311.22721     -8946.2384      1505.672      -7440.5663     -354.63822      0.98812314     24546.056    
     26700   300.67628     -8903.1345      1454.6282     -7448.5064     -343.44136      0.98812314     24546.056    
     26800   300.67692     -8914.8667      1454.6312     -7460.2354     -718.24587      0.98812314     24546.056    
     26900   298.81234     -8917.586       1445.6107     -7471.9753     -546.26304      0.98812314     24546.056    
     27000   293.34439     -8904.0896      1419.1575     -7484.9321      48.066992      0.98812314     24546.056    
     27100   296.16399     -8927.7455      1432.7984     -7494.9471      383.49941      0.98812314     24546.056    
     27200   300.55356     -8956.4466      1454.0345     -7502.4121     -129.31321      0.98812314     24546.056    
     27300   289.3018      -8907.4016      1399.6001     -7507.8015     -79.763819      0.98812314     24546.056    
     27400   297.63132     -8949.8356      1439.8971     -7509.9385     -220.57548      0.98812314     24546.056    
     27500   293.64835     -8930.7084      1420.6281     -7510.0803      190.58472      0.98812314     24546.056    
     27600   301.17764     -8965.0182      1457.0536     -7507.9646      23.820983      0.98812314     24546.056    
     27700   310.82471     -9010.8668      1503.7248     -7507.142       58.391001      0.98812314     24546.056    
     27800   304.48929     -8982.0453      1473.0749     -7508.9704     -211.45769      0.98812314     24546.056    
     27900   287.99845     -8905.1031      1393.2946     -7511.8084      481.9808       0.98812314     24546.056    
     28000   287.29462     -8902.4058      1389.8897     -7512.5161      408.90276      0.98812314     24546.056    
     28100   297.14641     -8947.4808      1437.5512     -7509.9297     -528.31854      0.98812314     24546.056    
     28200   296.50727     -8938.3183      1434.4591     -7503.8593      327.56858      0.98812314     24546.056    
     28300   307.97552     -8985.8557      1489.9408     -7495.9149      227.18901      0.98812314     24546.056    
     28400   299.87678     -8939.4973      1450.7603     -7488.7369     -176.44115      0.98812314     24546.056    
     28500   292.032       -8891.5026      1412.8084     -7478.6943     -220.19685      0.98812314     24546.056    
     28600   293.89576     -8886.8167      1421.825      -7464.9917     -78.62873       0.98812314     24546.056    
     28700   303.4737      -8916.1619      1468.1616     -7448.0003     -22.003757      0.98812314     24546.056    
     28800   298.21764     -8873.5266      1442.7336     -7430.793       450.74542      0.98812314     24546.056    
     28900   306.08497     -8895.8598      1480.7946     -7415.0652     -195.38221      0.98812314     24546.056    
     29000   311.54146     -8911.5158      1507.1923     -7404.3235      353.88554      0.98812314     24546.056    
     29100   310.59498     -8900.6752      1502.6134     -7398.0618      790.113        0.98812314     24546.056    
     29200   304.26952     -8868.2375      1472.0117     -7396.2257      672.02853      0.98812314     24546.056    
     29300   304.02766     -8868.3598      1470.8416     -7397.5181      443.45821      0.98812314     24546.056    
     29400   299.03157     -8849.4435      1446.6713     -7402.7723      97.0504        0.98812314     24546.056    
     29500   298.35389     -8854.0587      1443.3927     -7410.6659     -159.32028      0.98812314     24546.056    
     29600   295.7363      -8855.5472      1430.7293     -7424.8179      233.34931      0.98812314     24546.056    
     29700   297.23066     -8888.9568      1437.9588     -7450.9981     -36.282979      0.98812314     24546.056    
     29800   290.51647     -8887.8836      1405.4765     -7482.4071      8.9217235      0.98812314     24546.056    
     29900   291.17316     -8912.8902      1408.6535     -7504.2367     -1217.1307      0.98812314     24546.056    
     30000   296.78996     -8949.9298      1435.8267     -7514.1031     -712.71035      0.98812314     24546.056    
     30100   292.83328     -8933.927       1416.6849     -7517.2422      395.11913      0.98812314     24546.056    
     30200   295.37235     -8946.5465      1428.9685     -7517.578       390.65042      0.98812314     24546.056    
     30300   299.59777     -8966.0761      1449.4105     -7516.6656     -209.26642      0.98812314     24546.056    
     30400   303.4574      -8983.4151      1468.0828     -7515.3323      99.775954      0.98812314     24546.056    
     30500   302.66911     -8979.7016      1464.2692     -7515.4324      333.52084      0.98812314     24546.056    
     30600   294.96185     -8943.1175      1426.9826     -7516.135      -119.58504      0.98812314     24546.056    
     30700   306.88672     -9002.5967      1484.6734     -7517.9233      231.65484      0.98812314     24546.056    
     30800   298.43517     -8964.0885      1443.786      -7520.3025      136.86109      0.98812314     24546.056    
     30900   299.34167     -8971.7423      1448.1715     -7523.5708      59.64107       0.98812314     24546.056    
     31000   296.04327     -8960.6396      1432.2143     -7528.4253     -12.086835      0.98812314     24546.056    
     31100   292.75268     -8950.7071      1416.2949     -7534.4122     -65.80595       0.98812314     24546.056    
     31200   290.19412     -8944.105       1403.917      -7540.188       948.52666      0.98812314     24546.056    
     31300   295.75855     -8977.7704      1430.8369     -7546.9335      462.50305      0.98812314     24546.056    
     31400   288.50924     -8949.6162      1395.7658     -7553.8504      31.141604      0.98812314     24546.056    
     31500   291.51556     -8970.9194      1410.3099     -7560.6094     -524.61441      0.98812314     24546.056    
     31600   286.05861     -8948.3547      1383.91       -7564.4447     -160.86404      0.98812314     24546.056    
     31700   291.68832     -8973.0092      1411.1457     -7561.8634      3.2173308      0.98812314     24546.056    
     31800   298.46843     -9001.0609      1443.9469     -7557.114       511.49681      0.98812314     24546.056    
     31900   296.9292      -8988.197       1436.5003     -7551.6967      43.692632      0.98812314     24546.056    
     32000   295.80846     -8976.4318      1431.0783     -7545.3535      175.7022       0.98812314     24546.056    
     32100   293.74627     -8958.4302      1421.1018     -7537.3284      195.01015      0.98812314     24546.056    
     32200   295.9546      -8959.8513      1431.7854     -7528.066      -79.65226       0.98812314     24546.056    
     32300   297.66604     -8955.9337      1440.0651     -7515.8686     -98.380306      0.98812314     24546.056    
     32400   298.8212      -8946.3894      1445.6535     -7500.7358     -94.140118      0.98812314     24546.056    
     32500   296.43443     -8919.7842      1434.1067     -7485.6775     -583.35846      0.98812314     24546.056    
     32600   291.77285     -8881.8791      1411.5546     -7470.3245      116.12556      0.98812314     24546.056    
     32700   300.25284     -8907.6085      1452.5796     -7455.0289      589.99877      0.98812314     24546.056    
     32800   301.06971     -8899.792       1456.5315     -7443.2605      530.83676      0.98812314     24546.056    
     32900   302.91937     -8901.0466      1465.4799     -7435.5667     -156.12038      0.98812314     24546.056    
     33000   301.06905     -8888.4801      1456.5283     -7431.9518      261.69         0.98812314     24546.056    
     33100   300.71526     -8886.787       1454.8167     -7431.9702     -116.54155      0.98812314     24546.056    
     33200   303.41909     -8901.8602      1467.8975     -7433.9627     -161.34907      0.98812314     24546.056    
     33300   300.71476     -8892.3848      1454.8143     -7437.5705      350.83624      0.98812314     24546.056    
     33400   312.67004     -8954.5752      1512.6522     -7441.923      -414.1704       0.98812314     24546.056    
     33500   298.85969     -8894.4445      1445.8398     -7448.6047      73.193457      0.98812314     24546.056    
     33600   303.50036     -8925.9617      1468.2906     -7457.671       442.75434      0.98812314     24546.056    
     33700   305.21647     -8945.9526      1476.5929     -7469.3597      229.43855      0.98812314     24546.056    
     33800   291.9121      -8893.8186      1412.2283     -7481.5903      633.90685      0.98812314     24546.056    
     33900   300.97267     -8946.6925      1456.0621     -7490.6305      360.48667      0.98812314     24546.056    
     34000   294.32218     -8920.3738      1423.8879     -7496.4859     -57.659379      0.98812314     24546.056    
     34100   296.73774     -8934.0511      1435.5741     -7498.4771     -486.85917      0.98812314     24546.056    
     34200   294.68644     -8923.2259      1425.6502     -7497.5757      170.33217      0.98812314     24546.056    
     34300   296.37642     -8929.4098      1433.826      -7495.5838      297.04375      0.98812314     24546.056    
     34400   294.23368     -8917.9768      1423.4598     -7494.517      -549.70267      0.98812314     24546.056    
     34500   291.19192     -8899.4173      1408.7442     -7490.6731     -174.56102      0.98812314     24546.056    
     34600   299.01672     -8933.2374      1446.5995     -7486.6379     -61.34935       0.98812314     24546.056    
     34700   300.2691      -8933.6989      1452.6583     -7481.0406     -430.90141      0.98812314     24546.056    
     34800   300.52594     -8929.8622      1453.9008     -7475.9614     -409.90714      0.98812314     24546.056    
     34900   304.40391     -8942.2917      1472.6619     -7469.6298     -772.11582      0.98812314     24546.056    
     35000   304.35568     -8936.4966      1472.4285     -7464.0681     -229.98838      0.98812314     24546.056    
     35100   301.00491     -8916.9171      1456.218      -7460.6991      430.66036      0.98812314     24546.056    
     35200   305.29451     -8934.5853      1476.9705     -7457.6148     -184.04381      0.98812314     24546.056    
     35300   306.88387     -8943.5727      1484.6596     -7458.9131      4.3903825      0.98812314     24546.056    
     35400   302.91244     -8927.8598      1465.4464     -7462.4135      445.95605      0.98812314     24546.056    
     35500   301.22219     -8928.308       1457.2692     -7471.0388      100.7611       0.98812314     24546.056    
     35600   300.8728      -8942.2067      1455.5789     -7486.6278     -150.54119      0.98812314     24546.056    
     35700   298.15537     -8947.2141      1442.4324     -7504.7818     -721.50993      0.98812314     24546.056    
     35800   296.69303     -8958.1644      1435.3578     -7522.8066     -634.4719       0.98812314     24546.056    
     35900   281.1323      -8895.7963      1360.0772     -7535.719      -530.32309      0.98812314     24546.056    
     36000   287.65464     -8932.1822      1391.6314     -7540.5508     -349.09969      0.98812314     24546.056    
     36100   292.46558     -8956.7449      1414.906      -7541.8389      31.918496      0.98812314     24546.056    
     36200   292.83075     -8959.3256      1416.6726     -7542.653       39.797263      0.98812314     24546.056    
     36300   294.92943     -8969.6245      1426.8258     -7542.7987     -195.63942      0.98812314     24546.056    
     36400   287.95345     -8931.9313      1393.0769     -7538.8544     -51.678529      0.98812314     24546.056    
     36500   291.36956     -8938.8449      1409.6036     -7529.2413     -14.252366      0.98812314     24546.056    
     36600   291.81849     -8924.1009      1411.7755     -7512.3254      197.34215      0.98812314     24546.056    
     36700   295.71207     -8921.7406      1430.612      -7491.1285     -74.536669      0.98812314     24546.056    
     36800   300.83008     -8924.1607      1455.3722     -7468.7885     -1106.9017      0.98812314     24546.056    
     36900   302.81016     -8915.7983      1464.9516     -7450.8468     -890.68245      0.98812314     24546.056    
     37000   302.16479     -8900.9957      1461.8294     -7439.1663     -16.202314      0.98812314     24546.056    
     37100   297.5958      -8872.5382      1439.7253     -7432.813      -337.90178      0.98812314     24546.056    
     37200   302.46437     -8892.9516      1463.2787     -7429.6729      129.41705      0.98812314     24546.056    
     37300   305.62629     -8910.0339      1478.5756     -7431.4583      335.55312      0.98812314     24546.056    
     37400   295.06486     -8864.2064      1427.4809     -7436.7255      309.69346      0.98812314     24546.056    
     37500   296.29434     -8875.6335      1433.429      -7442.2045      21.408079      0.98812314     24546.056    
     37600   302.70079     -8911.3088      1464.4224     -7446.8864     -423.14774      0.98812314     24546.056    
     37700   296.00195     -8885.1437      1432.0144     -7453.1293      295.96255      0.98812314     24546.056    
     37800   303.42598     -8927.5796      1467.9308     -7459.6488     -515.42404      0.98812314     24546.056    
     37900   305.49242     -8946.7505      1477.9279     -7468.8225     -1053.1357      0.98812314     24546.056    
     38000   298.47224     -8924.8314      1443.9653     -7480.866      -790.03851      0.98812314     24546.056    
     38100   304.32651     -8965.9211      1472.2874     -7493.6336     -722.06994      0.98812314     24546.056    
     38200   296.94975     -8940.3373      1436.5997     -7503.7376     -138.79112      0.98812314     24546.056    
     38300   293.693       -8930.8476      1420.8441     -7510.0036     -211.59508      0.98812314     24546.056    
     38400   302.13549     -8974.7601      1461.6876     -7513.0724     -39.5446        0.98812314     24546.056    
     38500   298.50983     -8960.2678      1444.1472     -7516.1206      214.31422      0.98812314     24546.056    
     38600   302.22203     -8980.8441      1462.1063     -7518.7378     -206.63081      0.98812314     24546.056    
     38700   289.927       -8923.6414      1402.6247     -7521.0167     -569.75637      0.98812314     24546.056    
     38800   290.32796     -8926.2731      1404.5645     -7521.7086     -238.37088      0.98812314     24546.056    
     38900   287.28482     -8910.6032      1389.8422     -7520.761      -203.6859       0.98812314     24546.056    
     39000   286.75706     -8903.6075      1387.289      -7516.3186     -491.88325      0.98812314     24546.056    
     39100   291.47733     -8920.9883      1410.125      -7510.8633      125.1054       0.98812314     24546.056    
     39200   294.84826     -8928.5231      1426.4331     -7502.09        330.4506       0.98812314     24546.056    
     39300   305.59536     -8974.2803      1478.4259     -7495.8543      232.45832      0.98812314     24546.056    
     39400   304.12865     -8965.6367      1471.3302     -7494.3065      64.098817      0.98812314     24546.056    
     39500   290.7638      -8900.0916      1406.673      -7493.4186      262.39798      0.98812314     24546.056    
     39600   288.89689     -8890.0032      1397.6412     -7492.362       64.883135      0.98812314     24546.056    
     39700   300.1479      -8942.3439      1452.0719     -7490.2719      195.83457      0.98812314     24546.056    
     39800   302.37321     -8954.7647      1462.8376     -7491.927       803.21372      0.98812314     24546.056    
     39900   296.03547     -8929.2364      1432.1766     -7497.0598      322.6031       0.98812314     24546.056    
     40000   299.62176     -8954.8538      1449.5266     -7505.3272      332.88444      0.98812314     24546.056    
     40100   295.04009     -8941.7835      1427.3611     -7514.4224     -698.96404      0.98812314     24546.056    
     40200   293.66759     -8947.6874      1420.7211     -7526.9663     -293.90918      0.98812314     24546.056    
     40300   293.11829     -8965.7596      1418.0637     -7547.696       58.395208      0.98812314     24546.056    
     40400   296.40835     -9009.7558      1433.9805     -7575.7753     -82.910683      0.98812314     24546.056    
     40500   290.44729     -9006.1893      1405.1418     -7601.0475     -728.76066      0.98812314     24546.056    
     40600   283.84932     -8988.0342      1373.2218     -7614.8125     -647.09597      0.98812314     24546.056    
     40700   287.21197     -9007.3304      1389.4898     -7617.8406     -212.88543      0.98812314     24546.056    
     40800   284.03942     -8987.0227      1374.1415     -7612.8813     -430.60075      0.98812314     24546.056    
     40900   294.77192     -9027.5308      1426.0637     -7601.4671      71.91636       0.98812314     24546.056    
     41000   291.48498     -8998.9466      1410.162      -7588.7846      737.51287      0.98812314     24546.056    
     41100   299.39135     -9024.3794      1448.4119     -7575.9676      252.01797      0.98812314     24546.056    
     41200   296.75728     -9000.029       1435.6686     -7564.3604      241.21432      0.98812314     24546.056    
     41300   294.59908     -8978.4053      1425.2276     -7553.1777     -307.28309      0.98812314     24546.056    
     41400   300.7445      -8996.8058      1454.9582     -7541.8476     -540.32188      0.98812314     24546.056    
     41500   288.56264     -8926.4121      1396.0241     -7530.388       146.45644      0.98812314     24546.056    
     41600   301.96673     -8979.7005      1460.8712     -7518.8293     -145.94518      0.98812314     24546.056    
     41700   309.04132     -9005.8117      1495.097      -7510.7147      51.813668      0.98812314     24546.056    
     41800   301.5534      -8964.3028      1458.8715     -7505.4312     -93.576396      0.98812314     24546.056    
     41900   300.6559      -8957.5665      1454.5295     -7503.0369      8.7517634      0.98812314     24546.056    
     42000   299.17325     -8950.942       1447.3567     -7503.5853      270.94745      0.98812314     24546.056    
     42100   300.49726     -8959.4001      1453.7621     -7505.638       61.644234      0.98812314     24546.056    
     42200   297.70778     -8949.9439      1440.267      -7509.6769     -38.259995      0.98812314     24546.056    
     42300   300.16342     -8964.8077      1452.147      -7512.6607     -440.24674      0.98812314     24546.056    
     42400   299.94395     -8966.4306      1451.0853     -7515.3454     -492.33881      0.98812314     24546.056    
     42500   289.29823     -8918.4852      1399.5828     -7518.9024      232.44944      0.98812314     24546.056    
     42600   297.60975     -8962.2071      1439.7927     -7522.4143     -530.56042      0.98812314     24546.056    
     42700   302.10291     -8988.4722      1461.53       -7526.9423     -1159.5674      0.98812314     24546.056    
     42800   298.71318     -8979.7261      1445.131      -7534.5951     -1257.2776      0.98812314     24546.056    
     42900   297.94975     -8988.5064      1441.4376     -7547.0688     -951.32308      0.98812314     24546.056    
     43000   294.83443     -8988.8292      1426.3661     -7562.4631     -251.94754      0.98812314     24546.056    
     43100   294.36119     -8999.8383      1424.0767     -7575.7617     -153.50005      0.98812314     24546.056    
     43200   290.71853     -8991.5152      1406.454      -7585.0612      94.211972      0.98812314     24546.056    
     43300   296.83872     -9026.0609      1436.0626     -7589.9983     -577.60568      0.98812314     24546.056    
     43400   296.4825      -9028.2908      1434.3393     -7593.9516      190.92314      0.98812314     24546.056    
     43500   297.28422     -9033.9741      1438.2179     -7595.7562     -526.79474      0.98812314     24546.056    
     43600   291.50545     -9006.5961      1410.261      -7596.3351     -115.67846      0.98812314     24546.056    
     43700   290.32034     -8996.5541      1404.5276     -7592.0264      98.097368      0.98812314     24546.056    
     43800   303.77769     -9053.8642      1469.6323     -7584.2318     -623.11178      0.98812314     24546.056    
     43900   299.96464     -9024.5455      1451.1854     -7573.3602     -800.49326      0.98812314     24546.056    
     44000   303.39581     -9028.5928      1467.7848     -7560.808      -697.22082      0.98812314     24546.056    
     44100   304.74998     -9020.9491      1474.3361     -7546.6129     -772.17893      0.98812314     24546.056    
     44200   300.63999     -8986.6654      1454.4526     -7532.2129      80.438616      0.98812314     24546.056    
     44300   300.42013     -8971.449       1453.389      -7518.06       -22.636215      0.98812314     24546.056    
     44400   299.59826     -8953.7194      1449.4129     -7504.3066     -170.99347      0.98812314     24546.056    
     44500   292.09494     -8905.7386      1413.1129     -7492.6258     -23.484957      0.98812314     24546.056    
     44600   291.08391     -8889.1342      1408.2217     -7480.9125     -306.99958      0.98812314     24546.056    
     44700   298.14574     -8914.2835      1442.3858     -7471.8977     -71.271441      0.98812314     24546.056    
     44800   304.91486     -8941.962       1475.1338     -7466.8282     -620.3374       0.98812314     24546.056    
     44900   298.59836     -8910.2442      1444.5755     -7465.6687     -447.79343      0.98812314     24546.056    
     45000   300.25909     -8917.8276      1452.6099     -7465.2177     -436.10011      0.98812314     24546.056    
     45100   296.31806     -8900.1817      1433.5437     -7466.638      -459.36839      0.98812314     24546.056    
     45200   307.44002     -8957.7657      1487.3501     -7470.4156     -316.56184      0.98812314     24546.056    
     45300   306.13233     -8956.8642      1481.0238     -7475.8404     -69.069153      0.98812314     24546.056    
     45400   295.79931     -8913.6         1431.0341     -7482.5659     -970.70144      0.98812314     24546.056    
     45500   301.28124     -8945.2301      1457.5549     -7487.6752     -960.81121      0.98812314     24546.056    
     45600   300.00444     -8942.8392      1451.3779     -7491.4613     -917.0697       0.98812314     24546.056    
     45700   299.15974     -8941.7377      1447.2914     -7494.4464     -104.8302       0.98812314     24546.056    
     45800   298.00284     -8938.9098      1441.6944     -7497.2153      25.722927      0.98812314     24546.056    
     45900   300.06409     -8952.3022      1451.6665     -7500.6357     -145.62258      0.98812314     24546.056    
     46000   299.21628     -8951.8215      1447.5649     -7504.2566     -145.05903      0.98812314     24546.056    
     46100   296.7632      -8943.5675      1435.6972     -7507.8703     -372.43842      0.98812314     24546.056    
     46200   297.10208     -8947.3265      1437.3367     -7509.9898     -979.65763      0.98812314     24546.056    
     46300   288.70189     -8906.9658      1396.6978     -7510.268      -416.07006      0.98812314     24546.056    
     46400   297.19637     -8945.2171      1437.7928     -7507.4243     -132.92249      0.98812314     24546.056    
     46500   298.66434     -8950.2898      1444.8947     -7505.3951      391.23857      0.98812314     24546.056    
     46600   292.74468     -8923.1088      1416.2562     -7506.8526      442.25353      0.98812314     24546.056    
     46700   300.98354     -8964.0915      1456.1146     -7507.9769      129.63438      0.98812314     24546.056    
     46800   292.50899     -8925.8324      1415.116      -7510.7164     -109.30983      0.98812314     24546.056    
     46900   306.68544     -9003.2472      1483.6996     -7519.5476      345.3423       0.98812314     24546.056    
     47000   300.58331     -8996.366       1454.1784     -7542.1876     -274.36765      0.98812314     24546.056    
     47100   284.07975     -8946.2284      1374.3365     -7571.8919     -180.18344      0.98812314     24546.056    
     47200   289.2479      -8992.6508      1399.3393     -7593.3115     -545.88196      0.98812314     24546.056    
     47300   299.82438     -9057.9173      1450.5068     -7607.4105     -601.12382      0.98812314     24546.056    
     47400   289.83046     -9016.9754      1402.1577     -7614.8177     -118.22631      0.98812314     24546.056    
     47500   286.27644     -9001.4759      1384.9638     -7616.5121      2.6805208      0.98812314     24546.056    
     47600   286.09574     -8996.3019      1384.0896     -7612.2123     -178.93721      0.98812314     24546.056    
     47700   287.10144     -8990.5015      1388.9551     -7601.5465     -249.48282      0.98812314     24546.056    
     47800   293.90876     -9009.5525      1421.8879     -7587.6646     -42.363794      0.98812314     24546.056    
     47900   302.12681     -9033.0966      1461.6456     -7571.4509     -324.05094      0.98812314     24546.056    
     48000   300.50719     -9011.5955      1453.8101     -7557.7854     -113.01838      0.98812314     24546.056    
     48100   297.72976     -8989.676       1440.3733     -7549.3027      208.86989      0.98812314     24546.056    
     48200   295.25578     -8971.4479      1428.4045     -7543.0433      256.26407      0.98812314     24546.056    
     48300   298.69939     -8982.0622      1445.0642     -7536.998       153.49362      0.98812314     24546.056    
     48400   309.1856      -9029.4527      1495.795      -7533.6576      821.98466      0.98812314     24546.056    
     48500   299.84693     -8986.0825      1450.6159     -7535.4666      768.14424      0.98812314     24546.056    
     48600   299.16421     -8986.4407      1447.313      -7539.1277      447.43579      0.98812314     24546.056    
     48700   289.13238     -8941.5136      1398.7804     -7542.7332      339.61563      0.98812314     24546.056    
     48800   292.82077     -8960.1022      1416.6244     -7543.4778     -313.97262      0.98812314     24546.056    
     48900   303.73746     -9011.8806      1469.4377     -7542.4429     -427.26488      0.98812314     24546.056    
     49000   312.86792     -9054.6966      1513.6095     -7541.0871      0.92217975     0.98812314     24546.056    
     49100   304.15245     -9015.7667      1471.4453     -7544.3214     -9.2658913      0.98812314     24546.056    
     49200   297.36994     -8990.9592      1438.6326     -7552.3267      94.062097      0.98812314     24546.056    
     49300   294.51958     -8989.412       1424.8429     -7564.5691     -273.30798      0.98812314     24546.056    
     49400   297.36129     -9016.5211      1438.5907     -7577.9304     -352.69873      0.98812314     24546.056    
     49500   299.78737     -9042.0852      1450.3277     -7591.7574     -305.62739      0.98812314     24546.056    
     49600   286.53835     -8990.3868      1386.2309     -7604.1559     -228.59458      0.98812314     24546.056    
     49700   288.07157     -9006.2647      1393.6484     -7612.6163     -677.70133      0.98812314     24546.056    
     49800   288.81686     -9013.6939      1397.254      -7616.4399     -356.07631      0.98812314     24546.056    
     49900   293.9598      -9039.089       1422.1348     -7616.9542     -959.23994      0.98812314     24546.056    
     50000   289.60027     -9014.0553      1401.044      -7613.0112     -60.919044      0.98812314     24546.056    
     50100   288.46208     -8999.1848      1395.5376     -7603.6471      286.16362      0.98812314     24546.056    
     50200   296.38692     -9021.0695      1433.8768     -7587.1927     -139.40516      0.98812314     24546.056    
     50300   294.11861     -8993.2043      1422.9031     -7570.3012      18.364718      0.98812314     24546.056    
     50400   296.86201     -8990.975       1436.1753     -7554.7997     -511.87841      0.98812314     24546.056    
     50500   290.2757      -8944.4173      1404.3117     -7540.1056     -320.57046      0.98812314     24546.056    
     50600   299.92351     -8977.5283      1450.9864     -7526.542      -55.025301      0.98812314     24546.056    
     50700   308.1501      -9009.775       1490.7854     -7518.9896     -213.51244      0.98812314     24546.056    
     50800   301.13971     -8973.5709      1456.8702     -7516.7007      12.473756      0.98812314     24546.056    
     50900   303.77525     -8986.8618      1469.6205     -7517.2413     -167.63925      0.98812314     24546.056    
     51000   297.0178      -8956.3451      1436.929      -7519.4161      53.808102      0.98812314     24546.056    
     51100   294.52572     -8947.5927      1424.8726     -7522.7201     -106.84269      0.98812314     24546.056    
     51200   289.43458     -8925.9073      1400.2425     -7525.6649      99.030205      0.98812314     24546.056    
     51300   300.3607      -8978.9409      1453.1015     -7525.8395      426.59722      0.98812314     24546.056    
     51400   293.36445     -8945.2069      1419.2546     -7525.9523      326.46311      0.98812314     24546.056    
     51500   296.67456     -8961.9137      1435.2684     -7526.6453     -24.627891      0.98812314     24546.056    
     51600   299.1083      -8974.8789      1447.0425     -7527.8365      151.78463      0.98812314     24546.056    
     51700   298.84217     -8974.7909      1445.755      -7529.0359      27.833431      0.98812314     24546.056    
     51800   296.04146     -8964.6111      1432.2056     -7532.4055     -261.68362      0.98812314     24546.056    
     51900   293.51864     -8958.142       1420.0005     -7538.1415      89.080173      0.98812314     24546.056    
     52000   299.6442      -8995.4639      1449.6351     -7545.8287     -493.36937      0.98812314     24546.056    
     52100   294.19451     -8982.1603      1423.2703     -7558.89       -320.99487      0.98812314     24546.056    
     52200   292.59435     -8990.749       1415.529      -7575.22       -231.43291      0.98812314     24546.056    
     52300   285.22929     -8969.0726      1379.8979     -7589.1747     -125.46191      0.98812314     24546.056    
     52400   285.40992     -8982.3218      1380.7717     -7601.5501      134.25827      0.98812314     24546.056    
     52500   282.95366     -8974.2803      1368.8887     -7605.3916      320.68839      0.98812314     24546.056    
     52600   291.17601     -9011.1283      1408.6672     -7602.4611      50.9921        0.98812314     24546.056    
     52700   300.04504     -9047.9202      1451.5743     -7596.3459     -297.96626      0.98812314     24546.056    
     52800   290.98647     -8995.1841      1407.7503     -7587.4338      50.075701      0.98812314     24546.056    
     52900   293.91056     -8996.606       1421.8966     -7574.7094      24.432443      0.98812314     24546.056    
     53000   301.74264     -9019.2867      1459.7871     -7559.4996     -293.04717      0.98812314     24546.056    
     53100   300.99903     -8999.9108      1456.1896     -7543.7212     -265.01701      0.98812314     24546.056    
     53200   304.91905     -9005.7712      1475.1541     -7530.6171     -490.35356      0.98812314     24546.056    
     53300   302.52619     -8983.2093      1463.5778     -7519.6315     -330.57235      0.98812314     24546.056    
     53400   298.69373     -8955.2897      1445.0368     -7510.2528     -418.73794      0.98812314     24546.056    
     53500   292.44399     -8915.9614      1414.8015     -7501.1599      18.679938      0.98812314     24546.056    
     53600   297.77092     -8931.2547      1440.5724     -7490.6822     -405.72907      0.98812314     24546.056    
     53700   290.35646     -8885.8663      1404.7024     -7481.1639     -86.796644      0.98812314     24546.056    
     53800   302.78886     -8938.2741      1464.8485     -7473.4255     -1624.7915      0.98812314     24546.056    
     53900   290.84723     -8875.7278      1407.0766     -7468.6512      158.76277      0.98812314     24546.056    
     54000   298.08644     -8904.6492      1442.0989     -7462.5503      118.67941      0.98812314     24546.056    
     54100   294.51035     -8883.0827      1424.7983     -7458.2844      11.720597      0.98812314     24546.056    
     54200   301.12583     -8912.2166      1456.803      -7455.4136     -134.55883      0.98812314     24546.056    
     54300   302.4095      -8917.8056      1463.0132     -7454.7923     -676.99766      0.98812314     24546.056    
     54400   298.00611     -8897.7497      1441.7103     -7456.0394     -252.47334      0.98812314     24546.056    
     54500   302.26865     -8920.8123      1462.3318     -7458.4805      54.138848      0.98812314     24546.056    
     54600   299.82888     -8913.7614      1450.5285     -7463.2329     -434.38054      0.98812314     24546.056    
     54700   292.18497     -8880.3191      1413.5484     -7466.7706     -703.25649      0.98812314     24546.056    
     54800   306.73912     -8952.9332      1483.9593     -7468.9739     -979.92143      0.98812314     24546.056    
     54900   307.67005     -8959.8307      1488.463      -7471.3677      141.19353      0.98812314     24546.056    
     55000   297.52556     -8916.0846      1439.3854     -7476.6992      5.3042928      0.98812314     24546.056    
     55100   301.67197     -8946.9412      1459.4452     -7487.496       420.62137      0.98812314     24546.056    
     55200   297.91806     -8947.5733      1441.2843     -7506.289       50.312885      0.98812314     24546.056    
     55300   297.66445     -8971.8999      1440.0574     -7531.8425     -818.55954      0.98812314     24546.056    
     55400   291.18038     -8965.2075      1408.6884     -7556.5191     -244.20343      0.98812314     24546.056    
     55500   292.72093     -8988.6067      1416.1413     -7572.4653     -1134.2568      0.98812314     24546.056    
     55600   295.33964     -9009.688       1428.8103     -7580.8778     -1200.7786      0.98812314     24546.056    
     55700   291.93821     -8997.2614      1412.3546     -7584.9068     -457.65309      0.98812314     24546.056    
     55800   294.18304     -9007.1782      1423.2148     -7583.9634     -258.10399      0.98812314     24546.056    
     55900   297.73753     -9021.0058      1440.4109     -7580.5949     -388.9876       0.98812314     24546.056    
     56000   301.12187     -9035.0797      1456.7839     -7578.2958     -245.60105      0.98812314     24546.056    
     56100   291.79619     -8987.6429      1411.6676     -7575.9753     -252.8899       0.98812314     24546.056    
     56200   287.23431     -8959.9072      1389.5979     -7570.3093     -1065.0682      0.98812314     24546.056    
     56300   294.85498     -8985.613       1426.4655     -7559.1475     -1165.249       0.98812314     24546.056    
     56400   303.35712     -9010.322       1467.5977     -7542.7244     -260.08887      0.98812314     24546.056    
     56500   305.67882     -9007.0469      1478.8297     -7528.2172     -424.52432      0.98812314     24546.056    
     56600   299.91256     -8968.4588      1450.9334     -7517.5254     -753.13241      0.98812314     24546.056    
     56700   299.62274     -8957.8868      1449.5313     -7508.3556     -847.69631      0.98812314     24546.056    
     56800   300.20832     -8954.893       1452.3643     -7502.5288     -931.4163       0.98812314     24546.056    
     56900   301.94281     -8961.0966      1460.7555     -7500.3411     -578.54082      0.98812314     24546.056    
     57000   296.59619     -8936.1526      1434.8893     -7501.2633     -64.44342       0.98812314     24546.056    
     57100   301.01703     -8958.4506      1456.2767     -7502.1739     -383.04714      0.98812314     24546.056    
     57200   298.76969     -8949.7909      1445.4044     -7504.3866     -445.94026      0.98812314     24546.056    
     57300   293.62493     -8927.5953      1420.5147     -7507.0806     -119.75629      0.98812314     24546.056    
     57400   297.48685     -8949.0233      1439.1982     -7509.8251     -584.85812      0.98812314     24546.056    
     57500   293.06723     -8930.0553      1417.8167     -7512.2386     -946.79814      0.98812314     24546.056    
     57600   291.55137     -8919.8487      1410.4832     -7509.3656     -602.94131      0.98812314     24546.056    
     57700   293.81163     -8925.6724      1421.418      -7504.2544     -166.11754      0.98812314     24546.056    
     57800   288.73673     -8896.542       1396.8663     -7499.6757     -260.38178      0.98812314     24546.056    
     57900   299.80412     -8945.2784      1450.4088     -7494.8697     -260.51986      0.98812314     24546.056    
     58000   294.04731     -8915.1698      1422.5581     -7492.6117     -306.2049       0.98812314     24546.056    
     58100   297.02873     -8927.5535      1436.9818     -7490.5717     -648.17096      0.98812314     24546.056    
     58200   292.46863     -8902.5133      1414.9207     -7487.5925     -275.68512      0.98812314     24546.056    
     58300   303.50487     -8950.5898      1468.3125     -7482.2774     -396.60426      0.98812314     24546.056    
     58400   284.40945     -8852.2955      1375.9316     -7476.3639      195.29331      0.98812314     24546.056    
     58500   293.59436     -8887.2409      1420.3669     -7466.8741     -676.9848       0.98812314     24546.056    
     58600   296.84889     -8891.6927      1436.1118     -7455.5809     -360.78662      0.98812314     24546.056    
     58700   300.99033     -8899.2182      1456.1475     -7443.0707     -519.80296      0.98812314     24546.056    
     58800   304.62172     -8904.46        1473.7156     -7430.7444     -324.98015      0.98812314     24546.056    
     58900   305.45578     -8899.0687      1477.7507     -7421.318       443.74871      0.98812314     24546.056    
     59000   305.93974     -8895.3613      1480.092      -7415.2693      92.460856      0.98812314     24546.056    
     59100   307.54086     -8903.8139      1487.838      -7415.9759     -761.38775      0.98812314     24546.056    
     59200   301.07091     -8879.2634      1456.5373     -7422.7261     -286.74127      0.98812314     24546.056    
     59300   294.37695     -8857.471       1424.1529     -7433.3181      558.72023      0.98812314     24546.056    
     59400   294.40265     -8871.4109      1424.2773     -7447.1336      156.36106      0.98812314     24546.056    
     59500   294.95927     -8888.573       1426.9701     -7461.6029     -137.20473      0.98812314     24546.056    
     59600   303.31429     -8944.7495      1467.3905     -7477.359      -442.70768      0.98812314     24546.056    
     59700   300.2823      -8946.4031      1452.7221     -7493.681       24.110456      0.98812314     24546.056    
     59800   290.81713     -8914.4666      1406.931      -7507.5356      124.88817      0.98812314     24546.056    
     59900   294.67818     -8942.4932      1425.6102     -7516.883       300.41769      0.98812314     24546.056    
     60000   294.71896     -8948.1731      1425.8075     -7522.3655      223.60321      0.98812314     24546.056    
     60100   299.38407     -8973.7336      1448.3766     -7525.357      -61.000683      0.98812314     24546.056    
     60200   290.42235     -8929.9283      1405.0211     -7524.9071     -264.20228      0.98812314     24546.056    
     60300   290.9677      -8931.0966      1407.6594     -7523.4372     -1077.9557      0.98812314     24546.056    
     60400   295.51359     -8950.9216      1429.6518     -7521.2698     -135.52887      0.98812314     24546.056    
     60500   304.79098     -8993.5938      1474.5345     -7519.0593      70.423931      0.98812314     24546.056    
     60600   302.68726     -8983.343       1464.357      -7518.986       355.77582      0.98812314     24546.056    
     60700   299.37853     -8967.621       1448.3499     -7519.2712     -239.21924      0.98812314     24546.056    
     60800   300.5106      -8973.4428      1453.8266     -7519.6161     -429.44825      0.98812314     24546.056    
     60900   295.50118     -8949.8672      1429.5918     -7520.2754     -211.82882      0.98812314     24546.056    
     61000   296.2232      -8951.5016      1433.0848     -7518.4168      196.75289      0.98812314     24546.056    
     61100   288.96006     -8910.9725      1397.9468     -7513.0257      182.15092      0.98812314     24546.056    
     61200   292.97313     -8920.8232      1417.3614     -7503.4618     -354.98843      0.98812314     24546.056    
     61300   295.01963     -8916.7434      1427.2621     -7489.4813      446.62829      0.98812314     24546.056    
     61400   303.97545     -8943.4538      1470.589      -7472.8648      383.11013      0.98812314     24546.056    
     61500   304.83648     -8932.254       1474.7546     -7457.4994      527.39789      0.98812314     24546.056    
     61600   312.2583      -8957.7295      1510.6603     -7447.0692     -268.65719      0.98812314     24546.056    
     61700   306.68593     -8927.6179      1483.702      -7443.916      -442.85345      0.98812314     24546.056    
     61800   313.81483     -8964.7606      1518.1906     -7446.57       -256.70546      0.98812314     24546.056    
     61900   304.01048     -8928.0128      1470.7585     -7457.2542      84.261888      0.98812314     24546.056    
     62000   308.82125     -8974.5751      1494.0324     -7480.5427     -155.79581      0.98812314     24546.056    
     62100   298.91697     -8958.2222      1446.1169     -7512.1053     -417.92176      0.98812314     24546.056    
     62200   300.00403     -8989.7265      1451.3759     -7538.3506     -116.59965      0.98812314     24546.056    
     62300   302.05601     -9014.8607      1461.3031     -7553.5576      489.0964       0.98812314     24546.056    
     62400   292.26787     -8978.1261      1413.9495     -7564.1766      897.47656      0.98812314     24546.056    
     62500   295.08061     -8998.8073      1427.5571     -7571.2502      263.18237      0.98812314     24546.056    
     62600   293.07116     -8994.6841      1417.8357     -7576.8485      336.08147      0.98812314     24546.056    
     62700   294.40579     -9004.5556      1424.2924     -7580.2632      6.8320859      0.98812314     24546.056    
     62800   293.8781      -9003.0386      1421.7396     -7581.2991     -404.29007      0.98812314     24546.056    
     62900   301.80687     -9042.0206      1460.0978     -7581.9228     -241.77298      0.98812314     24546.056    
     63000   304.28528     -9053.8071      1472.088      -7581.7192      53.330596      0.98812314     24546.056    
     63100   297.66463     -9022.6315      1440.0582     -7582.5732      522.35274      0.98812314     24546.056    
     63200   294.61793     -9010.8139      1425.3187     -7585.4951      301.80211      0.98812314     24546.056    
     63300   295.09698     -9013.6584      1427.6363     -7586.0221      89.730879      0.98812314     24546.056    
     63400   290.99787     -8992.159       1407.8054     -7584.3536     -145.42838      0.98812314     24546.056    
     63500   290.67709     -8986.943       1406.2535     -7580.6895      184.21467      0.98812314     24546.056    
     63600   294.56987     -9000.0848      1425.0862     -7574.9985      1255.8365      0.98812314     24546.056    
     63700   307.72173     -9056.7162      1488.713      -7568.0032      480.68108      0.98812314     24546.056    
     63800   296.40943     -8994.4137      1433.9858     -7560.4279      703.1038       0.98812314     24546.056    
     63900   288.10748     -8944.7413      1393.8221     -7550.9191      495.44233      0.98812314     24546.056    
     64000   298.70483     -8983.5015      1445.0906     -7538.4109     -435.9795       0.98812314     24546.056    
     64100   297.34454     -8962.4422      1438.5097     -7523.9325     -686.70098      0.98812314     24546.056    
     64200   291.63892     -8917.4004      1410.9067     -7506.4937     -578.46637      0.98812314     24546.056    
     64300   304.03418     -8958.944       1470.8732     -7488.0708     -602.42449      0.98812314     24546.056    
     64400   297.79037     -8916.4564      1440.6665     -7475.7899      143.835        0.98812314     24546.056    
     64500   293.06895     -8886.3667      1417.825      -7468.5416     -589.22992      0.98812314     24546.056    
     64600   304.03973     -8934.9354      1470.9        -7464.0354     -684.76505      0.98812314     24546.056    
     64700   306.40544     -8945.2625      1482.345      -7462.9175     -424.37726      0.98812314     24546.056    
     64800   301.69742     -8922.0904      1459.5683     -7462.5221     -506.04042      0.98812314     24546.056    
     64900   299.44861     -8915.3244      1448.6889     -7466.6356      572.01737      0.98812314     24546.056    
[...]
    184600   296.40971     -8964.2678      1433.9871     -7530.2807      379.11979      0.98812314     24546.056    
    184700   299.34742     -8950.9056      1448.1993     -7502.7063      64.608632      0.98812314     24546.056    
    184800   299.07918     -8927.9692      1446.9016     -7481.0676      71.725784      0.98812314     24546.056    
    184900   297.27994     -8909.0318      1438.1972     -7470.8347      524.91818      0.98812314     24546.056    
    185000   301.84798     -8927.5085      1460.2967     -7467.2118     -72.661191      0.98812314     24546.056    
    185100   295.03725     -8892.8366      1427.3474     -7465.4892      194.19353      0.98812314     24546.056    
    185200   299.64046     -8914.2101      1449.617      -7464.593       199.70451      0.98812314     24546.056    
    185300   299.05717     -8911.2502      1446.7951     -7464.4551      352.79812      0.98812314     24546.056    
    185400   304.0114      -8934.6814      1470.763      -7463.9184     -126.29711      0.98812314     24546.056    
    185500   296.86006     -8900.3713      1436.1658     -7464.2055      143.3833       0.98812314     24546.056    
    185600   302.05052     -8928.5954      1461.2765     -7467.3189      90.371489      0.98812314     24546.056    
    185700   290.13461     -8873.065       1403.6291     -7469.4359     -209.94137      0.98812314     24546.056    
    185800   290.25487     -8872.8592      1404.2109     -7468.6483     -884.78963      0.98812314     24546.056    
    185900   299.47535     -8911.8327      1448.8183     -7463.0144     -514.54991      0.98812314     24546.056    
    186000   296.28667     -8887.7266      1433.3919     -7454.3347     -362.79038      0.98812314     24546.056    
    186100   307.13144     -8931.5687      1485.8573     -7445.7114     -344.80621      0.98812314     24546.056    
    186200   301.5305      -8896.7978      1458.7607     -7438.037       507.26855      0.98812314     24546.056    
    186300   302.22226     -8896.011       1462.1074     -7433.9036     -293.82959      0.98812314     24546.056    
    186400   292.90955     -8848.5264      1417.0538     -7431.4726     -452.09817      0.98812314     24546.056    
    186500   304.05638     -8898.5151      1470.9806     -7427.5346     -312.48891      0.98812314     24546.056    
    186600   304.71806     -8896.8026      1474.1817     -7422.6209     -435.68175      0.98812314     24546.056    
    186700   292.35941     -8833.8205      1414.3923     -7419.4281      9.8969383      0.98812314     24546.056    
    186800   297.57398     -8854.5056      1439.6197     -7414.8859      159.61686      0.98812314     24546.056    
    186900   301.25836     -8866.0702      1457.4442     -7408.626      -336.63209      0.98812314     24546.056    
    187000   292.69489     -8818.5462      1416.0154     -7402.5308      113.73191      0.98812314     24546.056    
    187100   306.5847      -8878.6744      1483.2122     -7395.4621     -140.28046      0.98812314     24546.056    
    187200   302.59409     -8854.0804      1463.9062     -7390.1742      226.87563      0.98812314     24546.056    
    187300   300.75951     -8842.9984      1455.0308     -7387.9676      729.36356      0.98812314     24546.056    
    187400   301.38187     -8848.0798      1458.0417     -7390.0381      712.29245      0.98812314     24546.056    
    187500   297.81398     -8838.511       1440.7808     -7397.7302      874.44135      0.98812314     24546.056    
    187600   304.02529     -8880.8977      1470.8302     -7410.0675      144.35144      0.98812314     24546.056    
    187700   299.52141     -8875.3467      1449.0411     -7426.3056      10.948202      0.98812314     24546.056    
    187800   303.50785     -8911.6477      1468.3269     -7443.3209     -575.43171      0.98812314     24546.056    
    187900   290.81403     -8867.7463      1406.916      -7460.8302     -330.41945      0.98812314     24546.056    
    188000   303.84673     -8944.3152      1469.9663     -7474.3489     -159.08363      0.98812314     24546.056    
    188100   301.71127     -8944.9032      1459.6353     -7485.2679      14.214033      0.98812314     24546.056    
    188200   293.56011     -8914.3598      1420.2011     -7494.1586      217.84486      0.98812314     24546.056    
    188300   289.80221     -8901.6685      1402.021      -7499.6475     -377.61115      0.98812314     24546.056    
    188400   285.78148     -8884.6615      1382.5693     -7502.0922     -235.51635      0.98812314     24546.056    
    188500   293.2351      -8919.0554      1418.6288     -7500.4266      99.441338      0.98812314     24546.056    
    188600   295.67382     -8928.4205      1430.427      -7497.9936     -58.497509      0.98812314     24546.056    
    188700   292.27581     -8908.8413      1413.9879     -7494.8534     -288.96616      0.98812314     24546.056    
    188800   298.3921      -8933.1475      1443.5776     -7489.5698     -612.95337      0.98812314     24546.056    
    188900   304.10485     -8958.2406      1471.2151     -7487.0256     -301.74582      0.98812314     24546.056    
    189000   296.74077     -8922.2017      1435.5887     -7486.6129     -506.34672      0.98812314     24546.056    
    189100   295.31896     -8913.7928      1428.7102     -7485.0826     -176.59066      0.98812314     24546.056    
    189200   294.89892     -8906.7514      1426.6781     -7480.0733     -372.21605      0.98812314     24546.056    
    189300   286.99871     -8855.7188      1388.4581     -7467.2607     -461.23034      0.98812314     24546.056    
    189400   288.58485     -8838.579       1396.1316     -7442.4474     -542.81183      0.98812314     24546.056    
    189500   302.41503     -8875.1088      1463.04       -7412.0688     -906.83375      0.98812314     24546.056    
    189600   306.58649     -8874.9121      1483.2209     -7391.6913     -223.1255       0.98812314     24546.056    
    189700   310.25925     -8882.5492      1500.9892     -7381.56       -238.3459       0.98812314     24546.056    
    189800   300.03994     -8830.4088      1451.5497     -7378.8591      153.76125      0.98812314     24546.056    
    189900   308.28457     -8872.1173      1491.436      -7380.6813     -485.66018      0.98812314     24546.056    
    190000   297.16191     -8823.8256      1437.6261     -7386.1994     -48.525581      0.98812314     24546.056    
    190100   299.00912     -8838.8391      1446.5627     -7392.2765     -391.29372      0.98812314     24546.056    
    190200   298.80238     -8845.5224      1445.5625     -7399.9599     -83.226933      0.98812314     24546.056    
    190300   294.07017     -8829.7268      1422.6688     -7407.0581     -16.959656      0.98812314     24546.056    
    190400   300.10811     -8866.1094      1451.8795     -7414.2299     -891.13995      0.98812314     24546.056    
    190500   304.69908     -8900.2184      1474.0899     -7426.1285      70.296447      0.98812314     24546.056    
    190600   306.45731     -8923.8283      1482.5959     -7441.2324      235.40193      0.98812314     24546.056    
    190700   301.80275     -8919.2433      1460.0778     -7459.1654      528.27229      0.98812314     24546.056    
    190800   295.32702     -8906.9926      1428.7492     -7478.2434      1075.3808      0.98812314     24546.056    
    190900   294.65834     -8918.6506      1425.5142     -7493.1364      356.50402      0.98812314     24546.056    
    191000   294.80375     -8928.8923      1426.2177     -7502.6746     -255.70705      0.98812314     24546.056    
    191100   303.19637     -8975.0473      1466.82       -7508.2273     -504.29658      0.98812314     24546.056    
    191200   296.79165     -8947.0087      1435.8349     -7511.1739      682.377        0.98812314     24546.056    
    191300   292.00202     -8924.9341      1412.6633     -7512.2707      306.69968      0.98812314     24546.056    
    191400   298.9627      -8958.8886      1446.3381     -7512.5505      379.80903      0.98812314     24546.056    
    191500   296.20907     -8944.0918      1433.0164     -7511.0754      353.97859      0.98812314     24546.056    
    191600   294.58008     -8934.0608      1425.1356     -7508.9252     -560.48562      0.98812314     24546.056    
    191700   290.01959     -8907.1464      1403.0726     -7504.0737     -770.64023      0.98812314     24546.056    
    191800   293.34519     -8916.3136      1419.1614     -7497.1521      94.375716      0.98812314     24546.056    
    191900   298.63026     -8932.2269      1444.7298     -7487.4971      486.86973      0.98812314     24546.056    
    192000   298.0067      -8919.6847      1441.7131     -7477.9716      340.61254      0.98812314     24546.056    
    192100   292.71102     -8879.77        1416.0934     -7463.6766     -483.62913      0.98812314     24546.056    
    192200   303.42299     -8913.1367      1467.9163     -7445.2203     -112.73137      0.98812314     24546.056    
    192300   311.94827     -8935.1638      1509.1604     -7426.0034     -293.53024      0.98812314     24546.056    
    192400   313.38334     -8928.8503      1516.1031     -7412.7472     -408.29239      0.98812314     24546.056    
    192500   304.65031     -8879.4762      1473.854      -7405.6223      235.2064       0.98812314     24546.056    
    192600   307.96634     -8895.7321      1489.8964     -7405.8357     -527.88797      0.98812314     24546.056    
    192700   301.01453     -8867.9747      1456.2646     -7411.7101      94.844881      0.98812314     24546.056    
    192800   310.23971     -8921.8909      1500.8946     -7420.9962     -129.10267      0.98812314     24546.056    
    192900   296.36167     -8873.3358      1433.7547     -7439.5812     -264.16219      0.98812314     24546.056    
    193000   297.18705     -8908.4148      1437.7478     -7470.667      -148.66421      0.98812314     24546.056    
    193100   283.65655     -8873.8276      1372.2892     -7501.5384     -134.09322      0.98812314     24546.056    
    193200   291.45065     -8929.149       1409.9959     -7519.1531     -398.98723      0.98812314     24546.056    
    193300   294.35524     -8949.6964      1424.0479     -7525.6485      38.911223      0.98812314     24546.056    
    193400   309.13906     -9025.2576      1495.5699     -7529.6878     -71.442469      0.98812314     24546.056    
    193500   302.44266     -8996.4806      1463.1736     -7533.307      -145.93068      0.98812314     24546.056    
    193600   296.06713     -8969.1428      1432.3297     -7536.813       414.79695      0.98812314     24546.056    
    193700   298.91811     -8985.5596      1446.1224     -7539.4372      118.23224      0.98812314     24546.056    
    193800   300.67117     -8997.1647      1454.6034     -7542.5613     -178.98866      0.98812314     24546.056    
    193900   301.18599     -9004.0711      1457.094      -7546.9771      844.10383      0.98812314     24546.056    
    194000   290.45827     -8957.3533      1405.1949     -7552.1584      272.98875      0.98812314     24546.056    
    194100   298.3915      -8999.9216      1443.5747     -7556.3468      14.155243      0.98812314     24546.056    
    194200   291.90622     -8970.7972      1412.1999     -7558.5973      121.92167      0.98812314     24546.056    
    194300   282.70232     -8927.5684      1367.6727     -7559.8957      231.34966      0.98812314     24546.056    
    194400   285.62662     -8937.5284      1381.8201     -7555.7083     -205.70958      0.98812314     24546.056    
    194500   296.41401     -8978.4831      1434.0079     -7544.4752     -1205.9529      0.98812314     24546.056    
    194600   293.52754     -8946.1514      1420.0436     -7526.1078     -800.09898      0.98812314     24546.056    
    194700   293.38988     -8922.7924      1419.3776     -7503.4148     -562.39424      0.98812314     24546.056    
    194800   295.57873     -8912.0071      1429.9669     -7482.0402     -402.97574      0.98812314     24546.056    
    194900   296.6107      -8901.0301      1434.9595     -7466.0706      195.73435      0.98812314     24546.056    
    195000   308.17114     -8945.7195      1490.8872     -7454.8323     -53.508581      0.98812314     24546.056    
    195100   305.87635     -8928.6692      1479.7853     -7448.8839     -275.30332      0.98812314     24546.056    
    195200   301.80585     -8906.785       1460.0929     -7446.6921     -526.54533      0.98812314     24546.056    
    195300   301.33121     -8902.9359      1457.7966     -7445.1393     -637.56034      0.98812314     24546.056    
    195400   298.1297      -8886.2456      1442.3082     -7443.9374     -566.65028      0.98812314     24546.056    
    195500   306.20907     -8924.0906      1481.395      -7442.6956     -433.9922       0.98812314     24546.056    
    195600   302.52301     -8908.3231      1463.5624     -7444.7608     -216.1364       0.98812314     24546.056    
    195700   306.43427     -8936.1505      1482.4845     -7453.666       243.84731      0.98812314     24546.056    
    195800   307.70479     -8955.7424      1488.6311     -7467.1113     -804.52333      0.98812314     24546.056    
    195900   294.93745     -8913.1162      1426.8645     -7486.2517      245.88531      0.98812314     24546.056    
    196000   290.05201     -8907.2086      1403.2295     -7503.9791      300.40017      0.98812314     24546.056    
    196100   292.664       -8934.8033      1415.8659     -7518.9374     -28.548727      0.98812314     24546.056    
    196200   288.98725     -8927.7862      1398.0783     -7529.7078     -355.18234      0.98812314     24546.056    
    196300   293.77215     -8955.4286      1421.227      -7534.2016     -765.85333      0.98812314     24546.056    
    196400   298.66537     -8980.8998      1444.8996     -7536.0002     -763.85618      0.98812314     24546.056    
    196500   299.7547      -8986.8872      1450.1697     -7536.7175     -49.009375      0.98812314     24546.056    
    196600   296.11672     -8970.42        1432.5697     -7537.8503      477.34375      0.98812314     24546.056    
    196700   289.02649     -8936.2147      1398.2682     -7537.9466      602.4412       0.98812314     24546.056    
    196800   290.9419      -8944.1109      1407.5347     -7536.5762      70.296443      0.98812314     24546.056    
    196900   302.35056     -8997.4206      1462.7281     -7534.6925      559.06731      0.98812314     24546.056    
    197000   304.67414     -9008.073       1473.9692     -7534.1038      275.22574      0.98812314     24546.056    
    197100   307.40892     -9025.1161      1487.1997     -7537.9164     -53.164316      0.98812314     24546.056    
    197200   304.94366     -9021.0598      1475.2731     -7545.7867     -254.23501      0.98812314     24546.056    
    197300   306.9159      -9042.8248      1484.8145     -7558.0103      568.00505      0.98812314     24546.056    
    197400   290.19733     -8976.9385      1403.9325     -7573.0059      321.83934      0.98812314     24546.056    
    197500   296.9849      -9025.479       1436.7698     -7588.7092     -275.91474      0.98812314     24546.056    
    197600   298.33179     -9047.6451      1443.2859     -7604.3592     -837.81426      0.98812314     24546.056    
    197700   284.76552     -8995.8893      1377.6542     -7618.2351      363.94961      0.98812314     24546.056    
    197800   286.25942     -9012.2183      1384.8815     -7627.3368     -598.48885      0.98812314     24546.056    
    197900   289.83775     -9033.5414      1402.1929     -7631.3485     -616.53525      0.98812314     24546.056    
    198000   285.63987     -9011.4748      1381.8842     -7629.5906     -869.88086      0.98812314     24546.056    
    198100   293.40488     -9039.1061      1419.4502     -7619.6559     -1164.5861      0.98812314     24546.056    
    198200   301.21883     -9053.6704      1457.2529     -7596.4175     -732.33591      0.98812314     24546.056    
    198300   294.302       -8983.2659      1423.7903     -7559.4755     -174.06064      0.98812314     24546.056    
    198400   297.52879     -8966.8176      1439.401      -7527.4166      133.50001      0.98812314     24546.056    
    198500   290.87061     -8919.1241      1407.1897     -7511.9343      292.13449      0.98812314     24546.056    
    198600   294.47777     -8926.5061      1424.6407     -7501.8654      499.18057      0.98812314     24546.056    
    198700   299.07145     -8943.1093      1446.8642     -7496.2451      194.2177       0.98812314     24546.056    
    198800   302.48652     -8957.0149      1463.3859     -7493.6291     -213.83105      0.98812314     24546.056    
    198900   299.99646     -8942.9887      1451.3393     -7491.6494     -772.09174      0.98812314     24546.056    
    199000   294.64664     -8915.0893      1425.4576     -7489.6317     -487.09575      0.98812314     24546.056    
    199100   300.37733     -8938.4526      1453.1819     -7485.2707     -97.052692      0.98812314     24546.056    
    199200   306.64287     -8962.9846      1483.4937     -7479.4909      68.829582      0.98812314     24546.056    
    199300   301.43752     -8930.0509      1458.3109     -7471.7399     -170.8146       0.98812314     24546.056    
    199400   302.56733     -8928.5449      1463.7768     -7464.7681      67.381905      0.98812314     24546.056    
    199500   294.1201      -8880.1376      1422.9103     -7457.2273     -196.95574      0.98812314     24546.056    
    199600   306.32013     -8931.1696      1481.9323     -7449.2374     -870.4419       0.98812314     24546.056    
    199700   297.44383     -8881.0344      1438.9901     -7442.0444     -536.59965      0.98812314     24546.056    
    199800   302.05212     -8895.5886      1461.2843     -7434.3044     -782.09988      0.98812314     24546.056    
    199900   300.89528     -8883.122       1455.6876     -7427.4343     -884.58375      0.98812314     24546.056    
    200000   295.56248     -8849.3669      1429.8883     -7419.4786     -273.47201      0.98812314     24546.056    
Loop time of 4531.52 on 1 procs for 200000 steps with 2424 atoms

Performance: 1.907 ns/day, 12.588 hours/ns, 44.135 timesteps/s, 106.984 katom-step/s
99.6% CPU use with 1 MPI tasks x 1 OpenMP threads

MPI task timing breakdown:
Section |  min time  |  avg time  |  max time  |%varavg| %total
---------------------------------------------------------------
Pair    | 3840.8     | 3840.8     | 3840.8     |   0.0 | 84.76
Bond    | 8.3301     | 8.3301     | 8.3301     |   0.0 |  0.18
Kspace  | 387.71     | 387.71     | 387.71     |   0.0 |  8.56
Neigh   | 183.82     | 183.82     | 183.82     |   0.0 |  4.06
Comm    | 27.08      | 27.08      | 27.08      |   0.0 |  0.60
Output  | 2.2417     | 2.2417     | 2.2417     |   0.0 |  0.05
Modify  | 72.849     | 72.849     | 72.849     |   0.0 |  1.61
Other   |            | 8.692      |            |       |  0.19

Nlocal:           2424 ave        2424 max        2424 min
Histogram: 1 0 0 0 0 0 0 0 0 0
Nghost:          12353 ave       12353 max       12353 min
Histogram: 1 0 0 0 0 0 0 0 0 0
Neighs:         864503 ave      864503 max      864503 min
Histogram: 1 0 0 0 0 0 0 0 0 0

Total # of neighbors = 864503
Ave neighs/atom = 356.64315
Ave special neighs/atom = 2.0742574
Neighbor list builds = 4548
Dangerous builds = 0

# ---------------- Save ----------------
write_data      nvt_prod_final.data
System init for write_data ...
PPPM initialization ...
  using 12-bit tables for long-range coulomb
  G vector (1/distance) = 0.26366352
  grid = 15 15 15
  stencil order = 5
  estimated absolute RMS force accuracy = 0.031845615
  estimated relative force accuracy = 9.5902122e-05
  using double precision FFTW3
  3d grid and FFT values/proc = 10648 3375
Generated 325 of 325 mixed pair_coeff terms from geometric mixing rule
Total wall time: 1:15:31
