LAMMPS (22 Jul 2025 - Update 1)
  using 1 OpenMP thread(s) per MPI task
# =========================================================
# Conservative NPT equilibration
# System: caffeine + SPC/E water
# Starting point: short NVT-prepared structure
# =========================================================

include         in.common
units real
atom_style full
boundary p p p

pair_style      lj/cut/coul/long 10.0 10.0
pair_modify     mix geometric tail no
bond_style      harmonic
angle_style     harmonic
dihedral_style  opls
improper_style  cvff
kspace_style    pppm 1.0e-4
special_bonds   lj/coul 0.0 0.0 0.5
neighbor        2.0 bin
neigh_modify    every 1 delay 0 check yes
read_data       nvt_short_final.data
Reading data file ...
  orthogonal box = (-0.0005 0.023501 -0.026) to (29.9995 30.023501 29.974)
  1 by 1 by 1 MPI processor grid
  reading atoms ...
  2424 atoms
  reading velocities ...
  2424 velocities
  scanning bonds ...
  2 = max bonds/atom
  scanning angles ...
  6 = max angles/atom
  scanning dihedrals ...
  7 = max dihedrals/atom
  scanning impropers ...
  4 = max impropers/atom
  orthogonal box = (-0.0005 0.023501 -0.026) to (29.9995 30.023501 29.974)
  1 by 1 by 1 MPI processor grid
  reading bonds ...
  1625 bonds
  reading angles ...
  843 angles
  reading dihedrals ...
  54 dihedrals
  reading impropers ...
  14 impropers
Finding 1-2 1-3 1-4 neighbors ...
  special bond factors lj:    0        0        0.5     
  special bond factors coul:  0        0        0.5     
     4 = max # of 1-2 neighbors
     7 = max # of 1-3 neighbors
    16 = max # of 1-4 neighbors
    16 = max # of special neighbors
  special bonds CPU = 0.001 seconds
  read_data CPU = 0.052 seconds

# ---------------- Groups ----------------
group           caffeine molecule 1
24 atoms in group caffeine
group           water type 25 26
2400 atoms in group water

# ---------------- Constraints ----------------
fix             fxShake water shake 1.0e-4 200 0 b 26 a 44
Finding SHAKE clusters ...
       0 = # of size 2 clusters
       0 = # of size 3 clusters
       0 = # of size 4 clusters
     800 = # of frozen angles
  find clusters CPU = 0.001 seconds

# ---------------- Initialization ----------------
reset_timestep  0
timestep        0.5

# ---------------- Output ----------------
thermo          100
thermo_style    custom step temp pe ke etotal press density vol lx ly lz
thermo_modify   flush yes

dump            d1 all custom 500 npt_eq.lammpstrj id mol type q x y z vx vy vz
dump_modify     d1 sort id

# ---------------- NPT equilibration ----------------
# 1 atm in real units
# Tdamp = 200 fs, Pdamp = 1000 fs -> conservative choice
fix             fxNPT all npt temp 298.0 298.0 200.0 iso 1.0 1.0 1000.0
run             100000
PPPM initialization ...
WARNING: System is not charge neutral, net charge = -0.0002
For more information see https://docs.lammps.org/err0029 (src/kspace.cpp:330)
  using 12-bit tables for long-range coulomb
  G vector (1/distance) = 0.26644127
  grid = 16 16 16
  stencil order = 5
  estimated absolute RMS force accuracy = 0.026206477
  estimated relative force accuracy = 7.8920029e-05
  using double precision FFTW3
  3d grid and FFT values/proc = 12167 4096
Generated 325 of 325 mixed pair_coeff terms from geometric mixing rule
Neighbor list info ...
  update: every = 1 steps, delay = 0 steps, check = yes
  max neighbors/atom: 2000, page size: 100000
  master list distance cutoff = 12
  ghost atom cutoff = 12
  binsize = 6, bins = 5 5 5
  1 neighbor lists, perpetual/occasional/extra = 1 0 0
  (1) pair lj/cut/coul/long, perpetual
      attributes: half, newton on
      pair build: half/bin/newton
      stencil: half/bin/3d
      bin: standard
Per MPI rank memory allocation (min/avg/max) = 18.07 | 18.07 | 18.07 Mbytes
   Step          Temp          PotEng         KinEng         TotEng         Press         Density         Volume           Lx             Ly             Lz      
         0   302.65722     -8725.7942      1464.2116     -7261.5825     -1622.7704      0.89831576     27000          30             30             30           
       100   300.23104     -8715.4953      1452.4742     -7263.0211     -1389.9891      0.89980327     26955.365      29.983459      29.983459      29.983459    
       200   303.84164     -8740.0261      1469.9417     -7270.0844     -757.56292      0.90395776     26831.481      29.937455      29.937455      29.937455    
       300   304.85839     -8757.7838      1474.8606     -7282.9232     -758.95706      0.90967435     26662.866      29.874612      29.874612      29.874612    
       400   302.8211      -8765.5714      1465.0045     -7300.567      -394.30055      0.91636639     26468.153      29.801712      29.801712      29.801712    
       500   297.14687     -8757.3737      1437.5534     -7319.8203      278.93343      0.92302473     26277.222      29.72988       29.72988       29.72988     
       600   304.74274     -8812.6852      1474.3011     -7338.3841      493.43595      0.92839393     26125.252      29.672456      29.672456      29.672456    
       700   305.35426     -8832.9048      1477.2595     -7355.6453      430.25304      0.93229078     26016.052      29.631056      29.631056      29.631056    
       800   303.50832     -8837.1683      1468.3292     -7368.8391      230.78801      0.93491736     25942.962      29.603281      29.603281      29.603281    
       900   305.76945     -8857.6547      1479.2682     -7378.3865     -522.79133      0.93661887     25895.833      29.585344      29.585344      29.585344    
      1000   292.3334      -8800.3308      1414.2665     -7386.0643     -403.63009      0.93850869     25843.688      29.565473      29.565473      29.565473    
      1100   299.43992     -8841.3231      1448.6468     -7392.6762     -747.73556      0.94118303     25770.254      29.537443      29.537443      29.537443    
      1200   301.715       -8859.0981      1459.6533     -7399.4448     -570.12591      0.94486369     25669.867      29.499039      29.499039      29.499039    
      1300   296.21916     -8836.6882      1433.0652     -7403.6229      78.765172      0.94903392     25557.069      29.455768      29.455768      29.455768    
      1400   303.52455     -8875.1648      1468.4077     -7406.7571     -56.211009      0.95279959     25456.062      29.416911      29.416911      29.416911    
      1500   299.08133     -8858.6877      1446.912      -7411.7757      93.250203      0.95604346     25369.689      29.383603      29.383603      29.383603    
      1600   299.5621      -8866.935       1449.2379     -7417.6971     -97.315042      0.95884659     25295.523      29.354941      29.354941      29.354941    
      1700   293.11016     -8842.6459      1418.0244     -7424.6215     -55.013369      0.96135892     25229.418      29.329348      29.329348      29.329348    
      1800   300.62116     -8886.8264      1454.3615     -7432.4649     -141.06583      0.96383148     25164.695      29.304247      29.304247      29.304247    
      1900   296.96474     -8880.59        1436.6723     -7443.9178      250.41271      0.9664599      25096.256      29.277657      29.277657      29.277657    
      2000   292.65124     -8873.4317      1415.8042     -7457.6275      277.42186      0.96867045     25038.986      29.255369      29.255369      29.255369    
      2100   292.75201     -8887.5029      1416.2917     -7471.2112      428.46074      0.97042502     24993.714      29.237727      29.237727      29.237727    
      2200   295.19216     -8910.8891      1428.0968     -7482.7923      45.025084      0.97137212     24969.345      29.228221      29.228221      29.228221    
      2300   282.05425     -8857.7216      1364.5375     -7493.1841      146.4598       0.97195924     24954.262      29.222335      29.222335      29.222335    
      2400   294.31575     -8922.8111      1423.8568     -7498.9543     -400.78654      0.97271518     24934.869      29.214763      29.214763      29.214763    
      2500   288.23526     -8896.8829      1394.4403     -7502.4426      414.57899      0.9740222      24901.409      29.201689      29.201689      29.201689    
      2600   290.65836     -8908.4002      1406.1629     -7502.2373      233.16513      0.97502        24875.926      29.191725      29.191725      29.191725    
      2700   298.31582     -8943.1228      1443.2086     -7499.9142      417.20476      0.97578366     24856.458      29.184107      29.184107      29.184107    
      2800   304.09812     -8967.6522      1471.1825     -7496.4697     -292.88427      0.97607089     24849.143      29.181244      29.181244      29.181244    
      2900   295.70015     -8922.2591      1430.5544     -7491.7048      316.16487      0.97649529     24838.344      29.177016      29.177016      29.177016    
      3000   299.85923     -8935.7735      1450.6754     -7485.0981      572.97298      0.97636329     24841.702      29.178331      29.178331      29.178331    
      3100   298.97131     -8921.2547      1446.3797     -7474.875      -373.73703      0.97519109     24871.562      29.190017      29.190017      29.190017    
      3200   304.20493     -8932.0826      1471.6993     -7460.3833     -414.43088      0.97449559     24889.313      29.19696       29.19696       29.19696     
      3300   301.79927     -8905.4649      1460.061      -7445.4039     -56.846449      0.97460741     24886.457      29.195843      29.195843      29.195843    
      3400   308.52719     -8922.723       1492.6097     -7430.1133     -147.72235      0.97503765     24875.476      29.191549      29.191549      29.191549    
      3500   306.76231     -8904.8752      1484.0715     -7420.8037     -246.33037      0.97570014     24858.586      29.18494       29.18494       29.18494     
      3600   305.58122     -8894.4916      1478.3576     -7416.1341     -420.86035      0.9767828      24831.033      29.174153      29.174153      29.174153    
      3700   300.52308     -8868.781       1453.887      -7414.894       182.06029      0.97819488     24795.188      29.160108      29.160108      29.160108    
      3800   296.92628     -8853.1536      1436.4862     -7416.6674      27.299732      0.97950649     24761.986      29.147087      29.147087      29.147087    
      3900   299.04721     -8864.9306      1446.7469     -7418.1836     -146.80932      0.9811364      24720.85       29.130938      29.130938      29.130938    
      4000   298.53472     -8864.689       1444.2676     -7420.4214      496.345        0.98322959     24668.222      29.110251      29.110251      29.110251    
      4100   301.72479     -8884.2245      1459.7007     -7424.5238      96.514272      0.98486706     24627.208      29.094109      29.094109      29.094109    
      4200   296.69089     -8866.904       1435.3474     -7431.5566      241.44899      0.98579326     24604.069      29.084994      29.084994      29.084994    
      4300   298.38022     -8884.1635      1443.5201     -7440.6433      75.531927      0.98575695     24604.975      29.085351      29.085351      29.085351    
      4400   298.84227     -8900.1608      1445.7555     -7454.4054     -411.94286      0.98576596     24604.751      29.085263      29.085263      29.085263    
      4500   295.42201     -8901.6266      1429.2088     -7472.4178      329.86778      0.98663527     24583.072      29.076718      29.076718      29.076718    
      4600   295.05452     -8919.0468      1427.4309     -7491.6159      569.12656      0.98736538     24564.894      29.069549      29.069549      29.069549    
      4700   298.93105     -8954.506       1446.185      -7508.321       288.47271      0.9870717      24572.202      29.072432      29.072432      29.072432    
      4800   300.89542     -8978.3473      1455.6883     -7522.6589      404.8929       0.98611239     24596.107      29.081856      29.081856      29.081856    
      4900   296.38208     -8967.8447      1433.8534     -7533.9913     -116.50863      0.98440068     24638.875      29.098703      29.098703      29.098703    
      5000   292.44912     -8953.6802      1414.8264     -7538.8538     -1041.796       0.98267822     24682.063      29.115694      29.115694      29.115694    
      5100   283.09529     -8909.2849      1369.5739     -7539.711       37.9535        0.98264012     24683.02       29.116071      29.116071      29.116071    
      5200   292.09288     -8950.0171      1413.1029     -7536.9142      104.71621      0.98336397     24664.851      29.108925      29.108925      29.108925    
      5300   297.02009     -8968.7144      1436.94       -7531.7744     -18.134866      0.98424291     24642.825      29.100257      29.100257      29.100257    
      5400   292.42891     -8941.2785      1414.7286     -7526.55        112.55295      0.98493183     24625.588      29.093471      29.093471      29.093471    
      5500   299.25941     -8968.8753      1447.7736     -7521.1017     -279.11194      0.98495358     24625.044      29.093257      29.093257      29.093257    
      5600   307.29233     -9003.1213      1486.6356     -7516.4857      164.42647      0.9850401      24622.882      29.092405      29.092405      29.092405    
      5700   300.06796     -8965.5597      1451.6852     -7513.8746      797.329        0.9848424      24627.824      29.094352      29.094352      29.094352    
      5800   304.29516     -8984.2343      1472.1358     -7512.0985      136.78444      0.9837342      24655.568      29.105273      29.105273      29.105273    
      5900   295.90538     -8942.4574      1431.5473     -7510.9102     -5.0975686      0.9823075      24691.378      29.119357      29.119357      29.119357    
      6000   292.67494     -8924.1285      1415.9189     -7508.2096     -284.34182      0.9805023      24736.837      29.137216      29.137216      29.137216    
      6100   294.7672      -8927.6659      1426.0409     -7501.625      -85.127854      0.97882932     24779.116      29.153807      29.153807      29.153807    
      6200   294.31436     -8913.2052      1423.8501     -7489.3551     -479.73983      0.97748647     24813.157      29.167151      29.167151      29.167151    
      6300   307.91212     -8954.8981      1489.6341     -7465.264      -792.81274      0.97702618     24824.847      29.171731      29.171731      29.171731    
      6400   303.78697     -8903.4458      1469.6772     -7433.7685      323.62327      0.97758879     24810.56       29.166133      29.166133      29.166133    
      6500   310.4953      -8911.4448      1502.1311     -7409.3136      128.82697      0.97807322     24798.272      29.161317      29.161317      29.161317    
      6600   315.75058     -8925.8584      1527.5554     -7398.3029     -357.57478      0.9785585      24785.974      29.156496      29.156496      29.156496    
      6700   304.54309     -8869.8964      1473.3352     -7396.5612     -268.0719       0.97919204     24769.937      29.150207      29.150207      29.150207    
      6800   305.73518     -8880.1485      1479.1024     -7401.0462     -150.07209      0.98017347     24745.136      29.140474      29.140474      29.140474    
      6900   303.91823     -8880.9118      1470.3123     -7410.5996     -969.05451      0.98181068     24703.872      29.124267      29.124267      29.124267    
      7000   301.67139     -8882.6219      1459.4423     -7423.1795     -576.45145      0.98490972     24626.141      29.093689      29.093689      29.093689    
      7100   300.63557     -8890.5332      1454.4312     -7436.1019      262.9579       0.9893929      24514.554      29.049679      29.049679      29.049679    
      7200   301.10845     -8906.9392      1456.7189     -7450.2203      466.77934      0.99392963     24402.659      29.005413      29.005413      29.005413    
      7300   307.7029      -8954.2602      1488.6219     -7465.6383      791.76355      0.99778024     24308.485      28.968052      28.968052      28.968052    
      7400   301.48522     -8938.6778      1458.5417     -7480.1361      448.16941      1.0001926      24249.855      28.944744      28.944744      28.944744    
      7500   299.01539     -8939.3792      1446.593      -7492.7863      351.65088      1.0014274      24219.955      28.932843      28.932843      28.932843    
      7600   289.64001     -8903.2499      1401.2363     -7502.0136      328.93243      1.0022152      24200.916      28.92526       28.92526       28.92526     
      7700   295.94014     -8940.9454      1431.7154     -7509.23        37.544766      1.0028659      24185.213      28.919002      28.919002      28.919002    
      7800   301.76364     -8974.1727      1459.8886     -7514.284       40.09316       1.003576       24168.101      28.91218       28.91218       28.91218     
      7900   296.37307     -8953.4851      1433.8099     -7519.6752      143.29501      1.0043569      24149.309      28.904685      28.904685      28.904685    
      8000   296.29494     -8956.6507      1433.4319     -7523.2188     -34.42608       1.0049991      24133.877      28.898526      28.898526      28.898526    
      8100   294.01354     -8947.3825      1422.3948     -7524.9877      396.81836      1.0053048      24126.539      28.895597      28.895597      28.895597    
      8200   300.10909     -8977.3613      1451.8842     -7525.4772      272.91124      1.0047759      24139.238      28.900666      28.900666      28.900666    
      8300   294.08821     -8947.5695      1422.756      -7524.8135      1000.6992      1.0034777      24170.468      28.913124      28.913124      28.913124    
      8400   296.01301     -8957.8183      1432.0679     -7525.7504     -53.655327      1.0011859      24225.796      28.935169      28.935169      28.935169    
      8500   302.05254     -8988.6215      1461.2863     -7527.3352      340.01554      0.99886394     24282.111      28.957572      28.957572      28.957572    
      8600   299.21159     -8979.4405      1447.5422     -7531.8983      648.3924       0.99595781     24352.965      28.98571       28.98571       28.98571     
      8700   300.31066     -8994.1612      1452.8594     -7541.3019     -402.65468      0.9920922      24447.854      29.023308      29.023308      29.023308    
      8800   296.25487     -8989.3572      1433.238      -7556.1192     -632.6255       0.9885004      24536.688      29.058419      29.058419      29.058419    
      8900   299.38523     -9021.9497      1448.3822     -7573.5674     -1127.5762      0.98589927     24601.424      29.083952      29.083952      29.083952    
      9000   288.22664     -8985.0501      1394.3986     -7590.6515     -689.7484       0.98508127     24621.852      29.092         29.092         29.092       
      9100   282.89789     -8970.0494      1368.6189     -7601.4305     -902.42067      0.98549556     24611.502      29.087922      29.087922      29.087922    
      9200   278.93647     -8954.826       1349.4541     -7605.3719     -765.27092      0.9871655      24569.867      29.071511      29.071511      29.071511    
      9300   282.73029     -8968.0015      1367.8081     -7600.1934     -348.6719       0.99023956     24493.594      29.041397      29.041397      29.041397    
      9400   290.44075     -8991.6391      1405.1101     -7586.529      -531.29829      0.99403264     24400.13       29.004411      29.004411      29.004411    
      9500   294.05759     -8990.6769      1422.6079     -7568.069       105.21119      0.99837741     24293.945      28.962275      28.962275      28.962275    
      9600   297.5381      -8990.4263      1439.4461     -7550.9802      217.72406      1.0025294      24193.331      28.922238      28.922238      28.922238    
      9700   299.03834     -8984.5404      1446.704      -7537.8364      542.9381       1.0059047      24112.15       28.889852      28.889852      28.889852    
      9800   294.73241     -8953.218       1425.8726     -7527.3454      1008.4987      1.0077033      24069.113      28.872653      28.872653      28.872653    
      9900   299.67315     -8970.934       1449.7751     -7521.1589      421.05568      1.0076577      24070.202      28.873089      28.873089      28.873089    
     10000   300.26294     -8969.1582      1452.6285     -7516.5297     -342.91757      1.0067024      24093.044      28.882219      28.882219      28.882219    
     10100   294.44209     -8936.8535      1424.468      -7512.3854      304.37698      1.005891       24112.48       28.889983      28.889983      28.889983    
     10200   299.16795     -8956.1913      1447.3311     -7508.8603      433.37833      1.005129       24130.759      28.897282      28.897282      28.897282    
     10300   303.49201     -8975.4336      1468.2502     -7507.1834      286.78708      1.0040215      24157.378      28.907904      28.907904      28.907904    
     10400   297.74807     -8949.186       1440.4619     -7508.724       190.32953      1.0025906      24191.853      28.921649      28.921649      28.921649    
     10500   294.3966      -8936.1152      1424.248      -7511.8672      58.951253      1.0007979      24235.189      28.938908      28.938908      28.938908    
     10600   301.93193     -8975.9677      1460.7028     -7515.2649     -247.70876      0.99910428     24276.27       28.95525       28.95525       28.95525     
     10700   298.58108     -8963.9704      1444.4919     -7519.4786      72.625927      0.99810889     24300.481      28.964872      28.964872      28.964872    
     10800   298.98086     -8972.1547      1446.426      -7525.7287     -506.09867      0.99771839     24309.992      28.968651      28.968651      28.968651    
     10900   297.69721     -8976.0325      1440.2158     -7535.8166      385.98519      0.99807813     24301.229      28.96517       28.96517       28.96517     
     11000   293.24358     -8968.5535      1418.6698     -7549.8837      249.01048      0.99806197     24301.623      28.965326      28.965326      28.965326    
     11100   293.37492     -8984.944       1419.3052     -7565.6387     -616.94469      0.99774821     24309.265      28.968362      28.968362      28.968362    
     11200   290.38988     -8987.2751      1404.864      -7582.4111     -205.44998      0.99814202     24299.674      28.964552      28.964552      28.964552    
     11300   290.34389     -8998.7774      1404.6416     -7594.1358     -243.271        0.99906497     24277.225      28.95563       28.95563       28.95563     
     11400   293.06152     -9020.0436      1417.7891     -7602.2546      158.30644      1.0004931      24242.572      28.941846      28.941846      28.941846    
     11500   283.63729     -8977.6138      1372.196      -7605.4178     -224.82398      1.0018309      24210.2        28.928958      28.928958      28.928958    
     11600   299.89364     -9055.5971      1450.8418     -7604.7552     -670.64811      1.0034962      24170.021      28.912946      28.912946      28.912946    
     11700   293.06957     -9017.2058      1417.828      -7599.3779      185.80052      1.0054147      24123.901      28.894544      28.894544      28.894544    
     11800   301.66681     -9047.5861      1459.4202     -7588.1659      384.45378      1.0066669      24093.895      28.882559      28.882559      28.882559    
     11900   299.02971     -9017.0236      1446.6623     -7570.3613      1131.418       1.0068201      24090.229      28.881094      28.881094      28.881094    
     12000   295.03167     -8975.5467      1427.3204     -7548.2264      672.83543      1.0049822      24134.284      28.898689      28.898689      28.898689    
     12100   299.0562      -8972.3597      1446.7904     -7525.5692      496.78011      1.0019115      24208.252      28.928182      28.928182      28.928182    
     12200   292.61775     -8924.5631      1415.6422     -7508.9209      153.70114      0.998413       24293.079      28.961931      28.961931      28.961931    
     12300   299.02114     -8943.2071      1446.6208     -7496.5863     -39.727134      0.99513419     24373.121      28.993705      28.993705      28.993705    
     12400   303.70186     -8958.4906      1469.2655     -7489.2251      189.9791       0.99215869     24446.216      29.02266       29.02266       29.02266     
     12500   291.25095     -8894.9385      1409.0298     -7485.9088     -33.347735      0.98930562     24516.717      29.050533      29.050533      29.050533    
     12600   304.27982     -8953.5056      1472.0615     -7481.4441     -855.86187      0.98687892     24577.002      29.074325      29.074325      29.074325    
     12700   304.64849     -8951.064       1473.8451     -7477.2189     -198.62511      0.98548092     24611.867      29.088067      29.088067      29.088067    
     12800   297.98494     -8917.533       1441.6079     -7475.9251     -11.906202      0.98470815     24631.182      29.095674      29.095674      29.095674    
     12900   297.36224     -8914.9096      1438.5953     -7476.3143     -201.89826      0.98432217     24640.84       29.099476      29.099476      29.099476    
     13000   289.14626     -8875.4914      1398.8476     -7476.6438     -757.75132      0.98460997     24633.638      29.096641      29.096641      29.096641    
     13100   293.55771     -8895.1513      1420.1895     -7474.9618     -287.20315      0.98617096     24594.646      29.08128       29.08128       29.08128     
     13200   306.03262     -8950.3178      1480.5413     -7469.7764     -100.92007      0.98821149     24543.861      29.06125       29.06125       29.06125     
     13300   308.68642     -8958.1627      1493.3801     -7464.7826      206.3321       0.98992237     24501.442      29.044498      29.044498      29.044498    
     13400   301.24495     -8919.0428      1457.3793     -7461.6635      112.89486      0.9908025      24479.677      29.035896      29.035896      29.035896    
     13500   302.803       -8925.9794      1464.9169     -7461.0625      628.97813      0.99151193     24462.162      29.028969      29.028969      29.028969    
     13600   306.89812     -8952.3333      1484.7285     -7467.6047      353.09368      0.99184545     24453.936      29.025715      29.025715      29.025715    
     13700   295.60474     -8913.19        1430.0928     -7483.0972      820.9304       0.9917111      24457.249      29.027026      29.027026      29.027026    
     13800   300.13812     -8955.9959      1452.0246     -7503.9713     -278.36105      0.9906093      24484.452      29.037783      29.037783      29.037783    
     13900   287.53438     -8916.5694      1391.0495     -7525.5199      120.86785      0.98970604     24506.798      29.046615      29.046615      29.046615    
     14000   294.89074     -8968.0332      1426.6386     -7541.3946     -575.32707      0.98922755     24518.652      29.051297      29.051297      29.051297    
     14100   284.73541     -8927.2197      1377.5085     -7549.7112     -130.09335      0.98960273     24509.356      29.047625      29.047625      29.047625    
     14200   287.08353     -8941.0199      1388.8684     -7552.1515     -221.72531      0.99072956     24481.48       29.036608      29.036608      29.036608    
     14300   287.73276     -8941.4334      1392.0093     -7549.4242      111.0525       0.99221882     24444.734      29.022074      29.022074      29.022074    
     14400   298.00083     -8985.9412      1441.6847     -7544.2564      749.82327      0.99335175     24416.855      29.011036      29.011036      29.011036    
     14500   291.40284     -8948.2983      1409.7646     -7538.5336      688.31236      0.99332152     24417.598      29.01133       29.01133       29.01133     
     14600   298.97832     -8976.0324      1446.4137     -7529.6188     -545.43305      0.99232389     24442.146      29.021049      29.021049      29.021049    
     14700   292.87976     -8934.0944      1416.9097     -7517.1847      79.743725      0.99161214     24459.69       29.027991      29.027991      29.027991    
     14800   295.03786     -8929.0087      1427.3503     -7501.6585      103.364        0.99134747     24466.22       29.030574      29.030574      29.030574    
     14900   292.97099     -8904.3634      1417.3511     -7487.0123     -41.264476      0.99160515     24459.862      29.028059      29.028059      29.028059    
     15000   289.94812     -8874.6209      1402.7269     -7471.8941      87.728174      0.99224305     24444.138      29.021838      29.021838      29.021838    
     15100   297.93551     -8899.1502      1441.3687     -7457.7815     -19.183417      0.99269605     24432.983      29.017422      29.017422      29.017422    
     15200   307.30335     -8934.2899      1486.6889     -7447.6009      136.57294      0.99264722     24434.185      29.017898      29.017898      29.017898    
     15300   299.69851     -8892.7021      1449.8978     -7442.8042      392.91483      0.99219678     24445.277      29.022289      29.022289      29.022289    
     15400   303.72259     -8911.7036      1469.3657     -7442.3378      347.30851      0.99144696     24463.765      29.029603      29.029603      29.029603    
     15500   304.42065     -8916.3031      1472.7429     -7443.5603     -319.50188      0.99051142     24486.871      29.03874       29.03874       29.03874     
     15600   296.09388     -8880.126       1432.4592     -7447.6668      265.83121      0.98986962     24502.748      29.045014      29.045014      29.045014    
     15700   300.08238     -8904.6079      1451.7549     -7452.8529      42.645569      0.98874662     24530.578      29.056007      29.056007      29.056007    
     15800   302.89569     -8923.9243      1465.3653     -7458.559      -381.01037      0.98765915     24557.587      29.066667      29.066667      29.066667    
     15900   302.92544     -8932.6795      1465.5093     -7467.1702      191.46366      0.98702227     24573.433      29.072917      29.072917      29.072917    
     16000   309.48981     -8974.6639      1497.2667     -7477.3972     -132.7479       0.98601522     24598.531      29.082812      29.082812      29.082812    
     16100   299.25166     -8937.856       1447.7361     -7490.1199     -256.86152      0.98495003     24625.133      29.093292      29.093292      29.093292    
     16200   297.02628     -8940.2371      1436.97       -7503.2671      177.04823      0.98404856     24647.692      29.102173      29.102173      29.102173    
     16300   296.36709     -8949.4658      1433.7809     -7515.6849     -145.57614      0.98279355     24679.166      29.114555      29.114555      29.114555    
     16400   300.26802     -8979.2236      1452.6531     -7526.5706     -435.82831      0.98144063     24713.187      29.127927      29.127927      29.127927    
     16500   310.35697     -9038.3071      1501.4619     -7536.8451     -958.53332      0.98053706     24735.96       29.136872      29.136872      29.136872    
     16600   299.10498     -8993.9792      1447.0265     -7546.9527     -448.24685      0.98074754     24730.652      29.134787      29.134787      29.134787    
     16700   293.22711     -8972.0113      1418.5901     -7553.4212     -313.92311      0.98196418     24700.011      29.12275       29.12275       29.12275     
     16800   296.33956     -8989.0478      1433.6478     -7555.4        -422.78843      0.98378708     24654.243      29.104751      29.104751      29.104751    
     16900   305.98278     -9036.8494      1480.3002     -7556.5492     -739.1839       0.98618659     24594.256      29.081127      29.081127      29.081127    
     17000   305.73691     -9038.4041      1479.1107     -7559.2933      389.55148      0.98924497     24518.22       29.051127      29.051127      29.051127    
     17100   297.24938     -9000.9664      1438.0493     -7562.9171      742.49359      0.99180487     24454.937      29.026111      29.026111      29.026111    
     17200   292.87937     -8982.3994      1416.9078     -7565.4915      1095.189       0.99342443     24415.069      29.010329      29.010329      29.010329    
     17300   294.44539     -8991.1585      1424.484      -7566.6745      1087.8144      0.99352167     24412.679      29.009382      29.009382      29.009382    
     17400   292.50436     -8981.771       1415.0936     -7566.6774      684.33974      0.99179661     24455.141      29.026191      29.026191      29.026191    
     17500   296.07395     -8995.0794      1432.3627     -7562.7167     -92.39378       0.98884306     24528.185      29.055062      29.055062      29.055062    
     17600   299.90516     -9009.5332      1450.8976     -7558.6356     -298.95211      0.98590101     24601.38       29.083934      29.083934      29.083934    
     17700   289.70155     -8954.8832      1401.534      -7553.3492     -376.59141      0.98358242     24659.373      29.10677       29.10677       29.10677     
     17800   296.68491     -8983.0521      1435.3185     -7547.7336     -124.43498      0.98216393     24694.987      29.120775      29.120775      29.120775    
     17900   297.14109     -8979.1339      1437.5254     -7541.6084     -408.91637      0.98103869     24723.312      29.131905      29.131905      29.131905    
     18000   300.63533     -8990.1028      1454.43       -7535.6727     -287.43146      0.98031852     24741.475      29.139037      29.139037      29.139037    
     18100   302.42559     -8992.5838      1463.0911     -7529.4927      392.74743      0.97972735     24756.404      29.144897      29.144897      29.144897    
     18200   303.02641     -8990.0771      1465.9977     -7524.0793     -448.26173      0.97851234     24787.143      29.156954      29.156954      29.156954    
     18300   300.11685     -8969.9105      1451.9217     -7517.9888     -823.47503      0.97769109     24807.964      29.165116      29.165116      29.165116    
     18400   295.99024     -8942.3122      1431.9578     -7510.3544     -358.66693      0.97784484     24804.064      29.163587      29.163587      29.163587    
     18500   306.54879     -8984.0473      1483.0385     -7501.0088      265.73908      0.97866336     24783.318      29.155455      29.155455      29.155455    
     18600   308.69289     -8988.5792      1493.4114     -7495.1678     -137.2586       0.97916979     24770.5        29.150427      29.150427      29.150427    
     18700   300.47461     -8947.0395      1453.6525     -7493.387      -22.210943      0.97944601     24763.515      29.147687      29.147687      29.147687    
     18800   295.54114     -8924.9904      1429.7851     -7495.2053      202.56752      0.98002993     24748.76       29.141897      29.141897      29.141897    
     18900   301.80411     -8957.9353      1460.0844     -7497.8509     -442.7808       0.98119191     24719.451      29.130388      29.130388      29.130388    
     19000   304.27688     -8976.1159      1472.0473     -7504.0686     -193.8346       0.9833974      24664.012      29.108595      29.108595      29.108595    
     19100   309.10444     -9009.3601      1495.4024     -7513.9577      260.90431      0.98599624     24599.004      29.082998      29.082998      29.082998    
     19200   305.43299     -9008.57        1477.6405     -7530.9295      657.42268      0.98830995     24541.416      29.060285      29.060285      29.060285    
     19300   302.23864     -9013.5861      1462.1866     -7551.3994      948.38831      0.9895137      24511.561      29.048496      29.048496      29.048496    
     19400   299.78501     -9022.2776      1450.3163     -7571.9613      502.76357      0.9892204      24518.829      29.051367      29.051367      29.051367    
     19500   292.66597     -9001.2696      1415.8754     -7585.3942     -45.909209      0.98785516     24552.714      29.064744      29.064744      29.064744    
     19600   304.57747     -9067.8105      1473.5016     -7594.3089     -422.74762      0.98645838     24587.48       29.078456      29.078456      29.078456    
     19700   295.8153      -9031.0482      1431.1114     -7599.9367      140.57437      0.98549664     24611.475      29.087912      29.087912      29.087912    
     19800   293.49811     -9023.882       1419.9012     -7603.9807     -150.37325      0.98430883     24641.174      29.099608      29.099608      29.099608    
     19900   289.09555     -9002.8399      1398.6023     -7604.2376     -441.52688      0.98302281     24673.411      29.112292      29.112292      29.112292    
     20000   285.40651     -8979.9824      1380.7552     -7599.2272     -16.218222      0.98207337     24697.264      29.12167       29.12167       29.12167     
     20100   297.45175     -9029.4927      1439.0283     -7590.4644      207.14622      0.98126826     24717.528      29.129633      29.129633      29.129633    
     20200   293.34329     -8999.3354      1419.1522     -7580.1832     -153.0258       0.9805098      24736.648      29.137142      29.137142      29.137142    
     20300   294.3048      -8990.5015      1423.8039     -7566.6976      604.29767      0.9801048      24746.869      29.141155      29.141155      29.141155    
     20400   295.06014     -8980.2415      1427.4581     -7552.7834      109.65563      0.9790677      24773.083      29.151441      29.151441      29.151441    
     20500   295.90842     -8969.996       1431.562      -7538.4341     -1079.4633      0.97788527     24803.038      29.163185      29.163185      29.163185    
     20600   290.92784     -8932.0176      1407.4666     -7524.551      -421.93225      0.9780016      24800.088      29.162029      29.162029      29.162029    
     20700   292.59429     -8927.0936      1415.5287     -7511.5649     -466.31958      0.97935959     24765.7        29.148544      29.148544      29.148544    
     20800   294.03842     -8921.9476      1422.5151     -7499.4325     -177.22899      0.98209672     24696.677      29.12144       29.12144       29.12144     
     20900   302.40634     -8954.7653      1462.998      -7491.7674      306.7081       0.98604317     24597.833      29.082537      29.082537      29.082537    
     21000   299.49026     -8937.1691      1448.8904     -7488.2788      785.86538      0.99039917     24489.647      29.039837      29.039837      29.039837    
     21100   300.48134     -8943.6634      1453.6851     -7489.9783      354.67151      0.99427598     24394.158      29.002044      29.002044      29.002044    
     21200   302.62546     -8957.779       1464.058      -7493.721      -473.9064       0.99789768     24305.624      28.966916      28.966916      28.966916    
     21300   300.62549     -8954.0594      1454.3824     -7499.677       859.87263      1.0020219      24205.584      28.927119      28.927119      28.927119    
     21400   302.6867      -8970.1165      1464.3543     -7505.7622      1486.9905      1.0050837      24131.846      28.897716      28.897716      28.897716    
     21500   300.13042     -8967.3079      1451.9874     -7515.3205      1665.0193      1.006055       24108.548      28.888413      28.888413      28.888413    
     21600   293.64425     -8949.347       1420.6082     -7528.7388      227.85238      1.00504        24132.895      28.898134      28.898134      28.898134    
     21700   288.18151     -8934.9834      1394.1803     -7540.8031      248.61064      1.003291       24174.965      28.914917      28.914917      28.914917    
     21800   293.40652     -8969.0042      1419.4581     -7549.546       215.51353      1.0009538      24231.415      28.937406      28.937406      28.937406    
     21900   289.89823     -8959.2606      1402.4855     -7556.7751      171.11837      0.99810968     24300.461      28.964865      28.964865      28.964865    
     22000   295.70456     -8990.9697      1430.5757     -7560.394       68.868511      0.99463684     24385.308      28.998537      28.998537      28.998537    
     22100   289.57022     -8961.102       1400.8986     -7560.2034      192.68669      0.99099386     24474.95       29.034027      29.034027      29.034027    
     22200   287.51471     -8948.8757      1390.9544     -7557.9213      375.85334      0.98726908     24567.29       29.070494      29.070494      29.070494    
     22300   296.68303     -8985.9683      1435.3094     -7550.6589     -721.45614      0.98300249     24673.921      29.112492      29.112492      29.112492    
     22400   292.03439     -8951.3266      1412.82       -7538.5066     -991.15638      0.97965584     24758.211      29.145606      29.145606      29.145606    
     22500   303.21557     -8988.4325      1466.9129     -7521.5197     -804.43835      0.97815045     24796.314      29.16055       29.16055       29.16055     
     22600   305.34297     -8981.1432      1477.2049     -7503.9382      522.55178      0.9776102      24810.017      29.16592       29.16592       29.16592     
     22700   309.79729     -8986.6594      1498.7543     -7487.9051     -629.25477      0.97663183     24834.871      29.175656      29.175656      29.175656    
     22800   295.73969     -8908.4961      1430.7456     -7477.7505     -517.18242      0.97678189     24831.056      29.174162      29.174162      29.174162    
     22900   301.91815     -8929.9432      1460.6361     -7469.3071     -455.84076      0.9780631      24798.528      29.161418      29.161418      29.161418    
     23000   296.56008     -8893.9477      1434.7146     -7459.2331     -512.98865      0.98014613     24745.826      29.140745      29.140745      29.140745    
     23100   298.85119     -8887.2992      1445.7986     -7441.5006     -187.6469       0.9829694      24674.751      29.112819      29.112819      29.112819    
     23200   307.34349     -8898.2984      1486.8831     -7411.4153      886.89412      0.98590158     24601.366      29.083929      29.083929      29.083929    
     23300   313.46657     -8894.0812      1516.5057     -7377.5755      864.31697      0.98766248     24557.504      29.066634      29.066634      29.066634    
     23400   307.78369     -8846.4276      1489.0128     -7357.4148      208.92191      0.98803054     24548.356      29.063024      29.063024      29.063024    
     23500   311.26709     -8857.0577      1505.865      -7351.1927     -118.66042      0.98783287     24553.268      29.064963      29.064963      29.064963    
     23600   305.73698     -8831.8065      1479.1111     -7352.6954      632.14874      0.98735239     24565.217      29.069677      29.069677      29.069677    
     23700   317.98997     -8899.4469      1538.3893     -7361.0576      73.212956      0.98608792     24596.717      29.082097      29.082097      29.082097    
     23800   295.80732     -8806.5135      1431.0728     -7375.4407      301.57972      0.9847566      24629.97       29.095197      29.095197      29.095197    
     23900   302.03463     -8851.299       1461.1996     -7390.0993     -708.57588      0.98368317     24656.847      29.105776      29.105776      29.105776    
     24000   295.0707      -8830.119       1427.5092     -7402.6098     -1116.2783      0.98395151     24650.123      29.10313       29.10313       29.10313     
     24100   296.27657     -8848.038       1433.343      -7414.695       146.90107      0.98598571     24599.267      29.083102      29.083102      29.083102    
     24200   296.15571     -8857.8003      1432.7583     -7425.042       233.54814      0.9883056      24541.524      29.060328      29.060328      29.060328    
     24300   292.1708      -8846.7425      1413.4799     -7433.2626      576.78381      0.99032294     24491.532      29.040582      29.040582      29.040582    
     24400   301.63057     -8897.8844      1459.2449     -7438.6395      10.905308      0.99151116     24462.181      29.028977      29.028977      29.028977    
     24500   303.63241     -8911.9413      1468.9295     -7443.0118      65.364363      0.99245273     24438.973      29.019793      29.019793      29.019793    
     24600   300.35609     -8901.3721      1453.0791     -7448.293       253.62893      0.99306181     24423.984      29.013859      29.013859      29.013859    
     24700   301.68151     -8914.313       1459.4913     -7454.8217     -92.642472      0.99323871     24419.634      29.012137      29.012137      29.012137    
     24800   294.79695     -8889.9033      1426.1848     -7463.7185     -368.08678      0.99382755     24405.165      29.006406      29.006406      29.006406    
     24900   295.88575     -8903.0856      1431.4523     -7471.6333      10.684891      0.99495556     24377.497      28.99544       28.99544       28.99544     
     25000   294.95907     -8906.6682      1426.9691     -7479.699       322.22894      0.99621204     24346.75       28.983244      28.983244      28.983244    
     25100   300.9273      -8943.1084      1455.8425     -7487.2659      189.33845      0.99714706     24323.92       28.974182      28.974182      28.974182    
     25200   301.32047     -8957.2623      1457.7447     -7499.5177      86.937393      0.9979929      24303.305      28.965995      28.965995      28.965995    
     25300   289.97245     -8923.6683      1402.8446     -7520.8237      104.95659      0.99927082     24272.224      28.953641      28.953641      28.953641    
     25400   294.05726     -8966.8073      1422.6063     -7544.2011     -109.85528      1.0008663      24233.533      28.938249      28.938249      28.938249    
     25500   294.93082     -8991.0388      1426.8325     -7564.2063      758.88366      1.0024872      24194.35       28.922644      28.922644      28.922644    
     25600   292.90027     -8995.9944      1417.009      -7578.9854      764.33761      1.0032073      24176.982      28.915721      28.915721      28.915721    
     25700   291.81771     -8997.7681      1411.7717     -7585.9964     -239.21723      1.002887       24184.704      28.9188        28.9188        28.9188      
     25800   289.79263     -8990.4652      1401.9746     -7588.4905     -38.107304      1.0027285      24188.526      28.920323      28.920323      28.920323    
     25900   292.56968     -9003.3917      1415.4096     -7587.9821      247.10695      1.0028346      24185.968      28.919303      28.919303      28.919303    
     26000   295.81707     -9015.809       1431.12       -7584.689      -113.29012      1.0025979      24191.679      28.921579      28.921579      28.921579    
     26100   291.56107     -8990.9538      1410.5301     -7580.4237     -279.7682       1.0025104      24193.789      28.92242       28.92242       28.92242     
     26200   292.28322     -8990.5868      1414.0238     -7576.563      -218.65995      1.0030122      24181.686      28.917596      28.917596      28.917596    
     26300   297.4663      -9010.69        1439.0987     -7571.5912     -359.63027      1.0039605      24158.844      28.908488      28.908488      28.908488    
     26400   300.81858     -9019.9713      1455.3166     -7564.6547     -412.66934      1.005506       24121.711      28.89367       28.89367       28.89367     
     26500   294.4227      -8981.3255      1424.3742     -7556.9513      246.95009      1.0076523      24070.333      28.873141      28.873141      28.873141    
     26600   300.13702     -9000.5507      1452.0193     -7548.5314      282.76332      1.0100251      24013.786      28.850513      28.850513      28.850513    
     26700   308.46066     -9032.5944      1492.2878     -7540.3066      322.3604       1.012224       23961.618      28.829607      28.829607      28.829607    
     26800   307.60253     -9022.4186      1488.1363     -7534.2823      359.20746      1.0135173      23931.043      28.817339      28.817339      28.817339    
     26900   292.88596     -8947.3054      1416.9397     -7530.3656      922.04231      1.0138591      23922.975      28.8141        28.8141        28.8141      
     27000   296.70977     -8959.5128      1435.4388     -7524.074       587.11328      1.0128009      23947.971      28.824132      28.824132      28.824132    
     27100   298.0574      -8957.2367      1441.9584     -7515.2783      879.65731      1.0103433      24006.221      28.847484      28.847484      28.847484    
     27200   305.67229     -8977.91        1478.7981     -7499.1119      684.77857      1.0062176      24104.652      28.886857      28.886857      28.886857    
     27300   299.48806     -8924.5368      1448.8797     -7475.657       223.44924      1.0007705      24235.853      28.939172      28.939172      28.939172    
     27400   309.66042     -8947.2056      1498.0921     -7449.1135      255.97479      0.99464694     24385.06       28.998438      28.998438      28.998438    
     27500   302.86404     -8893.4632      1465.2122     -7428.251      -392.07121      0.98828516     24542.032      29.060528      29.060528      29.060528    
     27600   298.46138     -8858.7269      1443.9128     -7414.8141     -213.5857       0.98259082     24684.258      29.116558      29.116558      29.116558    
     27700   301.27799     -8863.1798      1457.5392     -7405.6406     -333.20152      0.97769602     24807.839      29.165067      29.165067      29.165067    
     27800   303.69029     -8869.6239      1469.2095     -7400.4144     -1195.6716      0.97414054     24898.384      29.200507      29.200507      29.200507    
     27900   302.98615     -8863.7405      1465.803      -7397.9376     -819.11105      0.9723908      24943.187      29.218011      29.218011      29.218011    
     28000   300.13076     -8848.3571      1451.989      -7396.368      -593.67264      0.97152902     24965.313      29.226648      29.226648      29.226648    
     28100   302.37093     -8857.1086      1462.8266     -7394.282      -860.89887      0.97138684     24968.967      29.228073      29.228073      29.228073    
     28200   305.27198     -8871.0856      1476.8615     -7394.2241     -176.97656      0.97233696     24944.568      29.21855       29.21855       29.21855     
     28300   305.85591     -8877.9485      1479.6865     -7398.262       274.04702      0.97367926     24910.18       29.205117      29.205117      29.205117    
     28400   306.1672      -8886.914       1481.1924     -7405.7216     -173.84575      0.97471795     24883.635      29.19474       29.19474       29.19474     
     28500   302.65558     -8880.9552      1464.2037     -7416.7515     -122.46488      0.97578694     24856.375      29.184075      29.184075      29.184075    
     28600   300.79494     -8886.2883      1455.2022     -7431.0861      240.93224      0.97676198     24831.562      29.174361      29.174361      29.174361    
     28700   308.49679     -8943.0007      1492.4626     -7450.5381      100.57455      0.97721632     24820.017      29.169838      29.169838      29.169838    
     28800   302.96544     -8938.0877      1465.7028     -7472.3849     -60.243039      0.97718429     24820.83       29.170157      29.170157      29.170157    
     28900   299.91478     -8941.3748      1450.9441     -7490.4307     -318.75868      0.97740377     24815.257      29.167974      29.167974      29.167974    
     29000   309.17963     -8997.7676      1495.7661     -7502.0014     -72.640063      0.97808824     24797.891      29.161168      29.161168      29.161168    
     29100   304.80135     -8984.0912      1474.5846     -7509.5065     -288.57932      0.97875343     24781.038      29.15456       29.15456       29.15456     
     29200   297.75097     -8956.1885      1440.4759     -7515.7126      99.046925      0.97964655     24758.445      29.145698      29.145698      29.145698    
     29300   298.90041     -8969.066       1446.0367     -7523.0293      79.046574      0.98049392     24737.048      29.137299      29.137299      29.137299    
     29400   294.1939      -8953.6351      1423.2674     -7530.3677      337.23733      0.98151791     24711.241      29.127163      29.127163      29.127163    
     29500   298.63877     -8981.4061      1444.771      -7536.6351      275.59391      0.98230126     24691.535      29.119418      29.119418      29.119418    
     29600   292.12239     -8955.2348      1413.2457     -7541.9892      80.621537      0.98233639     24690.652      29.119071      29.119071      29.119071    
     29700   297.27816     -8984.5183      1438.1886     -7546.3298      636.3777       0.98190152     24701.587      29.123369      29.123369      29.123369    
     29800   292.34025     -8963.1646      1414.2997     -7548.8649     -0.29690277     0.98062573     24733.724      29.135994      29.135994      29.135994    
     29900   298.9697      -8996.5981      1446.372      -7550.2261      14.080959      0.97936256     24765.625      29.148515      29.148515      29.148515    
     30000   296.97136     -8986.4683      1436.7043     -7549.7641     -299.8974       0.97857295     24785.608      29.156353      29.156353      29.156353    
     30100   296.77798     -8985.9194      1435.7687     -7550.1506     -12.392889      0.97843683     24789.056      29.157705      29.157705      29.157705    
     30200   298.19734     -8991.9468      1442.6354     -7549.3114     -446.31591      0.97849005     24787.708      29.157176      29.157176      29.157176    
     30300   301.41674     -9003.7508      1458.2104     -7545.5404     -95.495223      0.97864646     24783.746      29.155622      29.155622      29.155622    
     30400   297.08091     -8976.5959      1437.2343     -7539.3617      1151.3403      0.9784342      24789.123      29.157731      29.157731      29.157731    
     30500   298.91073     -8977.919       1446.0867     -7531.8323      253.20373      0.97673834     24832.163      29.174596      29.174596      29.174596    
     30600   295.63742     -8951.6815      1430.2509     -7521.4306     -343.89064      0.9742821      24894.767      29.199093      29.199093      29.199093    
     30700   296.05223     -8938.1231      1432.2577     -7505.8655     -1090.383       0.97234186     24944.443      29.218501      29.218501      29.218501    
     30800   290.41891     -8890.4535      1405.0045     -7485.449      -694.92488      0.97236867     24943.755      29.218233      29.218233      29.218233    
     30900   305.87739     -8944.7862      1479.7904     -7464.9959     -514.38955      0.97398249     24902.425      29.202086      29.202086      29.202086    
     31000   301.01054     -8906.0488      1456.2453     -7449.8035      78.978793      0.97621291     24845.528      29.179829      29.179829      29.179829    
     31100   314.58664     -8961.5579      1521.9244     -7439.6334     -529.01756      0.97823344     24794.21       29.159725      29.159725      29.159725    
     31200   309.20289     -8932.0066      1495.8787     -7436.1279     -313.70044      0.98082766     24728.631      29.133994      29.133994      29.133994    
     31300   308.75202     -8928.5407      1493.6974     -7434.8433      475.08272      0.98373087     24655.652      29.105305      29.105305      29.105305    
     31400   311.35707     -8944.3601      1506.3003     -7438.0598      646.68594      0.985664       24607.296      29.086265      29.086265      29.086265    
     31500   305.24879     -8922.2119      1476.7493     -7445.4626      136.31045      0.9861898      24594.176      29.081095      29.081095      29.081095    
     31600   297.9035      -8895.5406      1441.2139     -7454.3267      173.88737      0.98612939     24595.683      29.081689      29.081689      29.081689    
     31700   297.0718      -8898.9979      1437.1902     -7461.8077     -217.79743      0.98619168     24594.129      29.081077      29.081077      29.081077    
     31800   298.36394     -8913.3134      1443.4414     -7469.872       478.7628       0.98661331     24583.619      29.076934      29.076934      29.076934    
     31900   302.19716     -8940.2066      1461.986      -7478.2206      132.38772      0.98641167     24588.644      29.078915      29.078915      29.078915    
     32000   303.68079     -8955.8536      1469.1636     -7486.69        432.1188       0.98568138     24606.862      29.086094      29.086094      29.086094    
     32100   299.12558     -8946.5641      1447.1261     -7499.4381      842.57862      0.98396612     24649.757      29.102986      29.102986      29.102986    
     32200   291.06652     -8921.8069      1408.1375     -7513.6694      313.28779      0.98121268     24718.928      29.130183      29.130183      29.130183    
     32300   290.4412      -8933.1507      1405.1123     -7528.0384     -7.2497262      0.97837066     24790.733      29.158362      29.158362      29.158362    
     32400   291.24758     -8948.0124      1409.0135     -7538.999      -911.44311      0.97551484     24863.308      29.186788      29.186788      29.186788    
     32500   291.48843     -8956.4178      1410.1787     -7546.2391     -474.18953      0.97386812     24905.349      29.203229      29.203229      29.203229    
     32600   294.36209     -8973.9238      1424.081      -7549.8428     -1235.7099      0.97342646     24916.649      29.207645      29.207645      29.207645    
     32700   286.11193     -8934.1268      1384.168      -7549.9588     -692.74021      0.9744989      24889.228      29.196927      29.196927      29.196927    
     32800   283.45925     -8914.5135      1371.3347     -7543.1788      227.53841      0.9765482      24836.998      29.176489      29.176489      29.176489    
     32900   294.86241     -8948.6163      1426.5015     -7522.1148      340.92833      0.97839623     24790.085      29.158108      29.158108      29.158108    
     33000   305.88715     -8961.8635      1479.8376     -7482.026       269.42597      0.97962591     24758.967      29.145902      29.145902      29.145902    
     33100   303.62114     -8916.2632      1468.875      -7447.3882      836.74181      0.98004193     24748.457      29.141778      29.141778      29.141778    
     33200   300.41798     -8886.8989      1453.3785     -7433.5204      944.43079      0.97875139     24781.089      29.154581      29.154581      29.154581    
     33300   304.85904     -8902.779       1474.8638     -7427.9153     -280.02399      0.97594359     24852.385      29.182513      29.182513      29.182513    
     33400   301.17821     -8883.574       1457.0564     -7426.5176     -70.695381      0.97310064     24924.992      29.210905      29.210905      29.210905    
     33500   304.61831     -8902.2332      1473.6991     -7428.5341      60.71143       0.97035445     24995.532      29.238435      29.238435      29.238435    
     33600   309.45862     -8930.1056      1497.1158     -7432.9898     -907.13424      0.96789732     25058.986      29.263156      29.263156      29.263156    
     33700   294.91845     -8865.7141      1426.7726     -7438.9415     -906.1557       0.96689243     25085.03       29.27329       29.27329       29.27329     
     33800   295.03515     -8871.3298      1427.3372     -7443.9927     -701.92577      0.96777202     25062.231      29.264419      29.264419      29.264419    
     33900   303.0969      -8915.5392      1466.3388     -7449.2004     -29.914589      0.97010847     25001.87       29.240906      29.240906      29.240906    
     34000   297.98945     -8898.9591      1441.6297     -7457.3295     -649.21218      0.97292611     24929.463      29.212651      29.212651      29.212651    
     34100   291.59134     -8877.0359      1410.6765     -7466.3594     -1011.2471      0.97695086     24826.761      29.17248       29.17248       29.17248     
     34200   298.66044     -8920.1089      1444.8758     -7475.2331      207.82299      0.98273657     24680.597      29.115118      29.115118      29.115118    
     34300   300.11099     -8935.784       1451.8934     -7483.8906      570.24246      0.98832453     24541.054      29.060142      29.060142      29.060142    
     34400   308.72399     -8988.99        1493.5618     -7495.4282      311.13639      0.99262617     24434.703      29.018103      29.018103      29.018103    
     34500   297.67848     -8953.1514      1440.1252     -7513.0262      346.67385      0.99589944     24354.392      28.986277      28.986277      28.986277    
     34600   300.30373     -8984.0652      1452.8258     -7531.2394     -181.57197      0.99825745     24296.864      28.963435      28.963435      28.963435    
     34700   303.54677     -9014.0559      1468.5151     -7545.5408      639.70956      0.99978814     24259.665      28.948647      28.948647      28.948647    
     34800   297.95169     -8998.764       1441.447      -7557.317       684.26344      0.99992495     24256.346      28.947327      28.947327      28.947327    
     34900   296.86772     -9004.3015      1436.2029     -7568.0986      703.92127      0.99878502     24284.03       28.958335      28.958335      28.958335    
     35000   292.36292     -8989.6503      1414.4093     -7575.2409     -158.97606      0.99680254     24332.327      28.97752       28.97752       28.97752     
     35100   284.16688     -8951.9243      1374.7581     -7577.1662      270.94459      0.99502026     24375.911      28.994811      28.994811      28.994811    
     35200   286.87777     -8960.7731      1387.873      -7572.9001     -130.50497      0.99342694     24415.007      29.010304      29.010304      29.010304    
     35300   287.56328     -8955.7105      1391.1894     -7564.5211      342.74207      0.99232467     24442.127      29.021042      29.021042      29.021042    
     35400   294.62489     -8977.2704      1425.3524     -7551.918      -353.61574      0.99112274     24471.768      29.032768      29.032768      29.032768    
     35500   295.89808     -8970.0359      1431.5119     -7538.524      -151.94688      0.99010713     24496.87       29.042692      29.042692      29.042692    
     35600   288.4051      -8921.117       1395.262      -7525.855      -488.93407      0.98929251     24517.041      29.050661      29.050661      29.050661    
     35700   296.97271     -8949.4654      1436.7108     -7512.7546     -376.92179      0.98937676     24514.954      29.049837      29.049837      29.049837    
     35800   297.16843     -8941.0778      1437.6577     -7503.4201      138.4379       0.99027966     24492.602      29.041005      29.041005      29.041005    
     35900   299.79465     -8947.1862      1450.363      -7496.8232      176.2616       0.99117347     24470.515      29.032273      29.032273      29.032273    
     36000   299.82256     -8944.7193      1450.498      -7494.2213      25.932395      0.99161699     24459.57       29.027944      29.027944      29.027944    
     36100   299.21254     -8940.6491      1447.5468     -7493.1023     -143.70519      0.99177813     24455.596      29.026372      29.026372      29.026372    
     36200   304.35266     -8965.6845      1472.4139     -7493.2706      52.900732      0.99197406     24450.766      29.024461      29.024461      29.024461    
     36300   300.73761     -8951.1318      1454.9249     -7496.207       599.62886      0.99201679     24449.713      29.024044      29.024044      29.024044    
     36400   300.85664     -8958.4068      1455.5007     -7502.9061     -257.16683      0.99193665     24451.688      29.024825      29.024825      29.024825    
     36500   294.65853     -8936.562       1425.5151     -7511.0468     -400.55989      0.99257114     24436.058      29.01864       29.01864       29.01864     
     36600   298.18196     -8960.8445      1442.561      -7518.2836     -269.26868      0.99380276     24405.774      29.006647      29.006647      29.006647    
     36700   300.59774     -8979.1614      1454.2482     -7524.9132     -76.023636      0.99530239     24369.002      28.992071      28.992071      28.992071    
     36800   295.29424     -8962.4391      1428.5906     -7533.8485      293.73586      0.99660894     24337.054      28.979396      28.979396      28.979396    
     36900   290.05489     -8946.8328      1403.2434     -7543.5894      640.38959      0.99742576     24317.124      28.971484      28.971484      28.971484    
     37000   288.7396      -8949.6491      1396.8802     -7552.7689      161.50593      0.99735963     24318.736      28.972124      28.972124      28.972124    
     37100   292.68315     -8976.2236      1415.9586     -7560.265       273.95296      0.99676935     24333.137      28.977842      28.977842      28.977842    
     37200   295.93023     -8998.8411      1431.6675     -7567.1736     -481.28001      0.99560673     24361.552      28.989117      28.989117      28.989117    
     37300   294.16285     -8998.4994      1423.1171     -7575.3822     -425.69273      0.99472262     24383.205      28.997703      28.997703      28.997703    
     37400   288.65187     -8979.9687      1396.4558     -7583.5129      46.578576      0.99455771     24387.248      28.999306      28.999306      28.999306    
     37500   289.01494     -8985.8358      1398.2123     -7587.6235      182.81999      0.99472686     24383.101      28.997662      28.997662      28.997662    
     37600   292.61609     -9003.4198      1415.6341     -7587.7857      436.0798       0.99460406     24386.112      28.998855      28.998855      28.998855    
     37700   297.17382     -9020.4073      1437.6838     -7582.7235     -292.45623      0.99388363     24403.788      29.00586       29.00586       29.00586     
     37800   293.49591     -8993.6501      1419.8906     -7573.7595     -141.39329      0.9934351      24414.806      29.010225      29.010225      29.010225    
     37900   289.43898     -8962.1665      1400.2637     -7561.9027      206.18255      0.9932228      24420.025      29.012292      29.012292      29.012292    
     38000   293.17989     -8964.2531      1418.3617     -7545.8914     -487.70288      0.99322093     24420.071      29.01231       29.01231       29.01231     
     38100   296.38865     -8960.8983      1433.8852     -7527.0131      20.36368       0.99392004     24402.894      29.005506      29.005506      29.005506    
     38200   306.15605     -8991.0051      1481.1385     -7509.8666      617.44012      0.99473715     24382.849      28.997562      28.997562      28.997562    
     38300   301.63892     -8958.9103      1459.2853     -7499.625       980.66876      0.99470505     24383.636      28.997874      28.997874      28.997874    
     38400   308.85613     -8987.101       1494.2011     -7492.8999      686.08928      0.99303635     24424.61       29.014107      29.014107      29.014107    
     38500   305.48143     -8967.041       1477.8748     -7489.1662     -201.22417      0.98971179     24506.655      29.046558      29.046558      29.046558    
     38600   302.50215     -8950.0075      1463.4614     -7486.546      -638.76153      0.98646799     24587.24       29.078361      29.078361      29.078361    
     38700   299.63535     -8936.4593      1449.5923     -7486.8671     -194.70168      0.98447094     24637.117      29.09801       29.09801       29.09801     
     38800   300.41476     -8941.6963      1453.363      -7488.3333     -61.894266      0.98317122     24669.686      29.110827      29.110827      29.110827    
     38900   304.71977     -8963.8906      1474.19       -7489.7006     -396.43933      0.98196663     24699.949      29.122726      29.122726      29.122726    
     39000   294.15481     -8917.0724      1423.0782     -7493.9942      84.362771      0.98118293     24719.678      29.130477      29.130477      29.130477    
     39100   297.87705     -8938.0377      1441.0859     -7496.9518     -997.66868      0.98027626     24742.541      29.139456      29.139456      29.139456    
     39200   297.86752     -8938.9912      1441.0398     -7497.9514     -224.93284      0.9804418      24738.363      29.137815      29.137815      29.137815    
     39300   306.93806     -8982.5777      1484.9217     -7497.656       144.45009      0.98119176     24719.455      29.13039       29.13039       29.13039     
     39400   308.89285     -8990.8313      1494.3787     -7496.4526     -345.03958      0.98176839     24704.936      29.124686      29.124686      29.124686    
     39500   295.02666     -8924.266       1427.2961     -7496.9699      485.93761      0.98223692     24693.152      29.120054      29.120054      29.120054    
     39600   301.13864     -8953.5579      1456.865      -7496.6929      98.811307      0.98160369     24709.082      29.126314      29.126314      29.126314    
     39700   296.77347     -8932.9241      1435.747      -7497.1771     -259.59894      0.98023893     24743.483      29.139825      29.139825      29.139825    
     39800   298.73209     -8947.0913      1445.2225     -7501.8688     -416.34501      0.97922263     24769.164      29.149903      29.149903      29.149903    
     39900   298.70057     -8953.5569      1445.07       -7508.4869      176.44578      0.97872146     24781.847      29.154878      29.154878      29.154878    
     40000   300.05307     -8966.9407      1451.6131     -7515.3276     -192.43998      0.97806529     24798.473      29.161396      29.161396      29.161396    
     40100   300.88097     -8980.2833      1455.6184     -7524.6649     -68.385576      0.97776485     24806.093      29.164383      29.164383      29.164383    
     40200   300.09753     -8989.1729      1451.8282     -7537.3446     -612.64602      0.97774792     24806.522      29.164551      29.164551      29.164551    
     40300   290.31988     -8954.5737      1404.5254     -7550.0483     -328.862        0.97821211     24794.751      29.159937      29.159937      29.159937    
     40400   294.17488     -8983.249       1423.1753     -7560.0736     -59.940475      0.97936792     24765.489      29.148461      29.148461      29.148461    
     40500   296.65364     -9002.2735      1435.1672     -7567.1063     -467.51661      0.98100944     24724.049      29.132194      29.132194      29.132194    
     40600   294.25427     -8995.5281      1423.5594     -7571.9687      822.18421      0.98320796     24668.764      29.110464      29.110464      29.110464    
     40700   291.88269     -8988.1669      1412.086      -7576.0808      379.02725      0.98477042     24629.624      29.09506       29.09506       29.09506     
     40800   295.29582     -9006.9689      1428.5983     -7578.3706     -224.81507      0.98557401     24609.543      29.087151      29.087151      29.087151    
     40900   302.15613     -9039.6848      1461.7875     -7577.8973      363.86077      0.98587193     24602.106      29.08422       29.08422       29.08422     
     41000   298.47934     -9019.0637      1443.9997     -7575.064       281.75753      0.98544774     24612.696      29.088393      29.088393      29.088393    
     41100   298.28711     -9011.6706      1443.0697     -7568.6009      903.46448      0.9844101      24638.64       29.09861       29.09861       29.09861     
     41200   297.7063      -8999.6697      1440.2598     -7559.4098      57.113707      0.98179997     24704.142      29.124373      29.124373      29.124373    
     41300   301.26467     -9002.2818      1457.4747     -7544.8071     -452.33075      0.97865398     24783.556      29.155548      29.155548      29.155548    
     41400   295.8774      -8959.2934      1431.4119     -7527.8816     -915.29053      0.97579252     24856.232      29.184019      29.184019      29.184019    
     41500   289.79212     -8908.5849      1401.9722     -7506.6127     -743.59585      0.97402988     24901.213      29.201613      29.201613      29.201613    
     41600   292.57784     -8900.916       1415.4491     -7485.467      -398.8928       0.97384328     24905.985      29.203478      29.203478      29.203478    
     41700   290.1432      -8871.2841      1403.6707     -7467.6134      473.32842      0.97446165     24890.18       29.197299      29.197299      29.197299    
     41800   298.07678     -8897.3356      1442.0521     -7455.2835     -103.20798      0.97508922     24874.16       29.191034      29.191034      29.191034    
     41900   299.43912     -8895.2798      1448.643      -7446.6369      312.55894      0.97577015     24856.802      29.184242      29.184242      29.184242    
     42000   303.71248     -8912.4171      1469.3168     -7443.1003      484.9108       0.97589707     24853.569      29.182977      29.182977      29.182977    
     42100   299.66916     -8892.6696      1449.7558     -7442.9137     -288.78335      0.97544203     24865.163      29.187514      29.187514      29.187514    
     42200   305.78445     -8924.0343      1479.3408     -7444.6935     -381.55149      0.97543417     24865.364      29.187592      29.187592      29.187592    
     42300   294.86828     -8875.3704      1426.5299     -7448.8405     -439.10269      0.97601402     24850.591      29.181811      29.181811      29.181811    
     42400   303.10348     -8919.8174      1466.3706     -7453.4468     -830.42915      0.97745419     24813.977      29.167472      29.167472      29.167472    
     42500   305.92351     -8942.8543      1480.0135     -7462.8408     -388.2505       0.98046198     24737.854      29.137616      29.137616      29.137616    
     42600   302.5044      -8940.861       1463.4723     -7477.3886     -182.11157      0.98464006     24632.885      29.096344      29.096344      29.096344    
     42700   298.87788     -8941.8961      1445.9278     -7495.9683      615.47554      0.9893774      24514.938      29.04983       29.04983       29.04983     
     42800   299.75804     -8966.4573      1450.1858     -7516.2715      811.59455      0.99349738     24413.276      29.009619      29.009619      29.009619    
     42900   302.57874     -8997.5105      1463.832      -7533.6785      281.14285      0.99650529     24339.585      28.980401      28.980401      28.980401    
     43000   303.61034     -9015.4623      1468.8227     -7546.6396      564.75948      0.99884876     24282.48       28.957719      28.957719      28.957719    
     43100   301.09594     -9010.221       1456.6584     -7553.5626      188.64522      0.99970372     24261.714      28.949462      28.949462      28.949462    
     43200   296.04457     -8990.1718      1432.2206     -7557.9512      330.24277      0.99964482     24263.143      28.95003       28.95003       28.95003     
     43300   300.17565     -9011.0926      1452.2062     -7558.8864      449.3954       0.99928904     24271.782      28.953466      28.953466      28.953466    
     43400   297.56356     -8999.178       1439.5693     -7559.6087      304.31354      0.99814682     24299.557      28.964506      28.964506      28.964506    
     43500   295.37079     -8990.6549      1428.961      -7561.6939     -198.3815       0.99625106     24345.797      28.982866      28.982866      28.982866    
     43600   293.67022     -8983.49        1420.7339     -7562.7561      37.339982      0.99437675     24391.686      29.001065      29.001065      29.001065    
     43700   296.73109     -8999.6546      1435.5419     -7564.1127      580.21004      0.99225505     24443.842      29.021721      29.021721      29.021721    
     43800   297.75724     -9004.5275      1440.5063     -7564.0212     -120.87349      0.98929196     24517.055      29.050667      29.050667      29.050667    
     43900   292.46212     -8976.1236      1414.8892     -7561.2344     -421.65889      0.9864514      24587.654      29.078524      29.078524      29.078524    
     44000   294.4508      -8979.0868      1424.5102     -7554.5766     -1245.8967      0.98444174     24637.848      29.098298      29.098298      29.098298    
     44100   297.45705     -8982.4759      1439.054      -7543.4219     -516.46891      0.98374517     24655.293      29.105164      29.105164      29.105164    
     44200   296.14503     -8959.8341      1432.7066     -7527.1275     -710.05938      0.9840559      24647.508      29.102101      29.102101      29.102101    
     44300   300.30332     -8960.0324      1452.8238     -7507.2086     -487.79746      0.98565493     24607.522      29.086355      29.086355      29.086355    
     44400   300.59304     -8942.8457      1454.2255     -7488.6202     -252.26407      0.98808507     24547.001      29.06249       29.06249       29.06249     
     44500   302.80177     -8938.4065      1464.911      -7473.4956      213.10138      0.99088755     24477.576      29.035065      29.035065      29.035065    
     44600   298.8266      -8908.8389      1445.6797     -7463.1592      543.70614      0.99344474     24414.569      29.010131      29.010131      29.010131    
     44700   306.00448     -8937.9201      1480.4052     -7457.5149      227.66973      0.99500419     24376.305      28.994967      28.994967      28.994967    
     44800   306.79421     -8937.9267      1484.2258     -7453.7008      627.49686      0.99562996     24360.984      28.988892      28.988892      28.988892    
     44900   293.0756      -8872.2938      1417.8572     -7454.4366      887.11741      0.99500393     24376.311      28.99497       28.99497       28.99497     
     45000   296.38828     -8889.8807      1433.8834     -7455.9972      866.27709      0.9933949      24415.794      29.010616      29.010616      29.010616    
     45100   295.80127     -8891.0617      1431.0436     -7460.0181      462.60015      0.99076754     24480.541      29.036237      29.036237      29.036237    
     45200   295.48157     -8893.302       1429.4969     -7463.805      -91.941787      0.98717856     24569.543      29.071383      29.071383      29.071383    
     45300   293.74551     -8886.6721      1421.0981     -7465.574      -683.25983      0.98351226     24661.132      29.107462      29.107462      29.107462    
     45400   297.56534     -8903.7221      1439.5779     -7464.1442     -1092.2368      0.98092621     24726.147      29.133018      29.133018      29.133018    
     45500   301.90764     -8923.1422      1460.5853     -7462.5569     -760.20426      0.97999362     24749.677      29.142257      29.142257      29.142257    
     45600   305.01528     -8939.5585      1475.6196     -7463.9389     -749.48589      0.98066142     24732.823      29.13564       29.13564       29.13564     
     45700   295.88587     -8901.4992      1431.4529     -7470.0463     -363.21022      0.98280308     24678.927      29.114461      29.114461      29.114461    
     45800   296.58736     -8914.1526      1434.8466     -7479.3061      741.67999      0.98561197     24608.595      29.086777      29.086777      29.086777    
     45900   302.19        -8960.9413      1461.9513     -7498.99        447.77281      0.98745754     24562.601      29.068645      29.068645      29.068645    
     46000   297.20153     -8970.3237      1437.8178     -7532.5059     -298.06204      0.98866588     24532.581      29.056797      29.056797      29.056797    
     46100   290.75654     -8967.8863      1406.6379     -7561.2484     -534.0105       0.99049255     24487.338      29.038924      29.038924      29.038924    
     46200   294.99517     -9003.3058      1427.1438     -7576.1621     -677.46235      0.99337337     24416.324      29.010826      29.010826      29.010826    
     46300   289.16427     -8980.8249      1398.9347     -7581.8902     -492.77851      0.99748064     24315.786      28.970952      28.970952      28.970952    
     46400   289.20174     -8980.8748      1399.116      -7581.7588     -12.262304      1.0027173      24188.797      28.920431      28.920431      28.920431    
     46500   296.98202     -9014.0579      1436.7559     -7577.3021      351.40874      1.0080154      24061.661      28.869673      28.869673      28.869673    
     46600   297.09688     -9008.1015      1437.3115     -7570.79        601.02306      1.0122613      23960.735      28.829252      28.829252      28.829252    
     46700   294.66348     -8990.4359      1425.5391     -7564.8968      1086.4423      1.0152207      23890.889      28.801212      28.801212      28.801212    
     46800   300.58704     -9014.2079      1454.1964     -7560.0115      967.1495       1.016896       23851.53       28.785387      28.785387      28.785387    
[...]
     88900   299.08353     -8887.7374      1446.9226     -7440.8147      142.70322      0.98925832     24517.889      29.050996      29.050996      29.050996    
     89000   302.10774     -8885.0708      1461.5533     -7423.5175      134.39193      0.9894999      24511.903      29.048631      29.048631      29.048631    
     89100   307.04117     -8899.0748      1485.4206     -7413.6543     -69.629828      0.98934789     24515.669      29.050119      29.050119      29.050119    
     89200   307.6302      -8898.8373      1488.2702     -7410.5671      194.27057      0.98909441     24521.952      29.052601      29.052601      29.052601    
     89300   307.49562     -8900.6693      1487.6192     -7413.0501     -348.65683      0.98861798     24533.769      29.057267      29.057267      29.057267    
     89400   302.46035     -8882.3287      1463.2592     -7419.0695     -329.59939      0.9884189      24538.711      29.059217      29.059217      29.059217    
     89500   294.07302     -8847.2293      1422.6825     -7424.5467     -303.47104      0.98863838     24533.263      29.057067      29.057067      29.057067    
     89600   305.46242     -8906.542       1477.7828     -7428.7591     -412.31888      0.98934203     24515.814      29.050176      29.050176      29.050176    
     89700   298.89996     -8879.34        1446.0346     -7433.3054     -238.90767      0.99036193     24490.567      29.040201      29.040201      29.040201    
     89800   299.93076     -8890.3275      1451.0214     -7439.3061      31.118073      0.99178725     24455.372      29.026283      29.026283      29.026283    
     89900   304.887       -8922.5872      1474.999      -7447.5882      245.78791      0.99337747     24416.223      29.010786      29.010786      29.010786    
     90000   304.69591     -8934.0743      1474.0746     -7459.9998      941.64222      0.99440921     24390.89       29.000749      29.000749      29.000749    
     90100   302.16709     -8938.2724      1461.8405     -7476.432       875.98388      0.99404229     24399.893      29.004317      29.004317      29.004317    
     90200   297.8662      -8933.9842      1441.0334     -7492.9508      66.053216      0.9919719      24450.819      29.024482      29.024482      29.024482    
     90300   304.85454     -8981.5263      1474.842      -7506.6843     -421.28301      0.9893377      24515.922      29.050219      29.050219      29.050219    
     90400   292.79746     -8930.2494      1416.5116     -7513.7378     -381.65677      0.9872545      24567.653      29.070637      29.070637      29.070637    
     90500   293.24406     -8936.3148      1418.6722     -7517.6426      25.40258       0.98608055     24596.901      29.082169      29.082169      29.082169    
     90600   292.82544     -8936.2039      1416.6469     -7519.557       176.64859      0.98510458     24621.27       29.09177       29.09177       29.09177     
     90700   293.0311      -8935.6527      1417.6419     -7518.0108     -742.93727      0.98421572     24643.506      29.100525      29.100525      29.100525    
     90800   291.32268     -8923.211       1409.3768     -7513.8342      183.4083       0.9842169      24643.476      29.100514      29.100514      29.100514    
     90900   296.11889     -8939.5765      1432.5802     -7506.9963     -150.01751      0.98440097     24638.868      29.0987        29.0987        29.0987      
     91000   292.44484     -8917.9447      1414.8057     -7503.139      -42.736531      0.9851586      24619.92       29.091239      29.091239      29.091239    
     91100   292.13752     -8913.5272      1413.3189     -7500.2083     -44.491098      0.98647843     24586.98       29.078259      29.078259      29.078259    
     91200   293.06774     -8914.5975      1417.8191     -7496.7784      108.0139       0.98790484     24551.48       29.064257      29.064257      29.064257    
     91300   298.99784     -8938.5362      1446.5081     -7492.0281      230.17683      0.98892651     24526.115      29.054245      29.054245      29.054245    
     91400   302.32743     -8950.3816      1462.6162     -7487.7654      366.32502      0.98952315     24511.327      29.048404      29.048404      29.048404    
     91500   301.22376     -8942.1685      1457.2768     -7484.8918     -227.48466      0.98950418     24511.797      29.04859       29.04859       29.04859     
     91600   304.69799     -8956.1716      1474.0846     -7482.087       178.62291      0.98939066     24514.609      29.049701      29.049701      29.049701    
     91700   308.05856     -8971.508       1490.3425     -7481.1654     -237.81799      0.98893132     24525.996      29.054198      29.054198      29.054198    
     91800   301.35231     -8943.8397      1457.8987     -7485.941      -504.94703      0.98886274     24527.697      29.054869      29.054869      29.054869    
     91900   305.94696     -8974.6779      1480.1269     -7494.551       491.85286      0.98943602     24513.486      29.049257      29.049257      29.049257    
     92000   300.79736     -8965.4971      1455.2139     -7510.2832      227.14489      0.98948659     24512.233      29.048762      29.048762      29.048762    
     92100   290.72742     -8938.2227      1406.497      -7531.7257      128.85629      0.98919628     24519.427      29.051603      29.051603      29.051603    
     92200   295.62611     -8982.1833      1430.1962     -7551.9872     -105.02569      0.98907482     24522.438      29.052792      29.052792      29.052792    
     92300   287.48102     -8957.3985      1390.7914     -7566.6071     -530.39067      0.9891788      24519.86       29.051774      29.051774      29.051774    
     92400   287.30823     -8963.6992      1389.9555     -7573.7438     -525.15604      0.99000261     24499.456      29.043714      29.043714      29.043714    
     92500   291.997       -8988.5561      1412.6391     -7575.9171     -405.807        0.99192377     24452.006      29.024951      29.024951      29.024951    
     92600   290.28573     -8977.243       1404.3602     -7572.8829     -667.84424      0.99521699     24371.093      28.992901      28.992901      28.992901    
     92700   286.53219     -8952.226       1386.2011     -7566.0249      283.45287      1.0003561      24245.892      28.943167      28.943167      28.943167    
     92800   288.00221     -8949.173       1393.3128     -7555.8602      556.13778      1.0062152      24104.711      28.88688       28.88688       28.88688     
     92900   303.00645     -9007.4705      1465.9012     -7541.5693      526.42979      1.0115112      23978.505      28.836377      28.836377      28.836377    
     93000   294.93421     -8955.2923      1426.8489     -7528.4434      1234.6468      1.0152579      23890.014      28.800861      28.800861      28.800861    
     93100   302.83205     -8982.1831      1465.0575     -7517.1256      759.43234      1.0168272      23853.143      28.786037      28.786037      28.786037    
     93200   291.07105     -8914.6979      1408.1594     -7506.5385      719.09926      1.0170626      23847.623      28.783816      28.783816      28.783816    
     93300   295.99204     -8928.572       1431.9665     -7496.6055     -97.797577      1.0164317      23862.425      28.78977       28.78977       28.78977     
     93400   296.57529     -8921.9638      1434.7882     -7487.1756      218.73971      1.0154701      23885.022      28.798854      28.798854      28.798854    
     93500   298.25777     -8922.7409      1442.9277     -7479.8132      638.81439      1.0139735      23920.276      28.813017      28.813017      28.813017    
     93600   306.29063     -8956.7109      1481.7896     -7474.9213      134.4063       1.0113234      23982.958      28.838162      28.838162      28.838162    
     93700   304.79349     -8947.6652      1474.5466     -7473.1186      94.581882      1.0079541      24063.125      28.870259      28.870259      28.870259    
     93800   302.39851     -8938.056       1462.9601     -7475.0959     -65.006693      1.0043143      24150.334      28.905094      28.905094      28.905094    
     93900   300.46732     -8932.7896      1453.6172     -7479.1723      197.39169      1.0007333      24236.753      28.93953       28.93953       28.93953     
     94000   299.69264     -8933.0606      1449.8695     -7483.1911     -91.386795      0.99705479     24326.171      28.975076      28.975076      28.975076    
     94100   301.17991     -8945.9892      1457.0646     -7488.9245     -480.7339       0.99379996     24405.843      29.006674      29.006674      29.006674    
     94200   302.01546     -8954.4851      1461.1069     -7493.3782     -808.02591      0.9912451      24468.747      29.031574      29.031574      29.031574    
     94300   291.29718     -8908.1116      1409.2534     -7498.8581     -444.3314       0.98961633     24509.019      29.047492      29.047492      29.047492    
     94400   299.81138     -8950.8111      1450.4439     -7500.3672     -581.72064      0.98907924     24522.328      29.052749      29.052749      29.052749    
     94500   298.34905     -8944.9843      1443.3693     -7501.6149      114.25761      0.98951336     24511.57       29.0485        29.0485        29.0485      
     94600   306.8126      -8987.5203      1484.3148     -7503.2055     -806.79121      0.98994671     24500.84       29.04426       29.04426       29.04426     
     94700   292.38353     -8921.4842      1414.509      -7506.9752     -57.408494      0.991316       24466.997      29.030882      29.030882      29.030882    
     94800   295.21782     -8938.9529      1428.2209     -7510.7319     -216.36553      0.99295524     24426.605      29.014897      29.014897      29.014897    
     94900   292.33079     -8928.9594      1414.2539     -7514.7055     -215.88097      0.99511826     24373.511      28.993859      28.993859      28.993859    
     95000   293.97789     -8937.5284      1422.2223     -7515.3061     -23.632775      0.99756609     24313.703      28.970125      28.970125      28.970125    
     95100   304.65057     -8986.5744      1473.8552     -7512.7192      58.636399      0.99998103     24254.986      28.946785      28.946785      28.946785    
     95200   296.4719      -8943.944       1434.288      -7509.6561      776.27835      1.0020773      24204.246      28.926586      28.926586      28.926586    
     95300   296.37        -8939.8545      1433.795      -7506.0595      221.62832      1.0031761      24177.734      28.916021      28.916021      28.916021    
     95400   297.32152     -8940.2655      1438.3983     -7501.8672      58.773437      1.0039396      24159.348      28.908689      28.908689      28.908689    
     95500   294.67477     -8921.8123      1425.5937     -7496.2186      933.97995      1.0044         24148.274      28.904272      28.904272      28.904272    
     95600   303.69237     -8959.0003      1469.2196     -7489.7807      318.36042      1.0034883      24170.212      28.913022      28.913022      28.913022    
     95700   291.42278     -8893.5494      1409.8611     -7483.6883      933.10459      1.0016953      24213.477      28.930263      28.930263      28.930263    
     95800   297.70344     -8916.5552      1440.246      -7476.3092      101.93365      0.9989688      24279.563      28.956559      28.956559      28.956559    
     95900   291.65148     -8878.2013      1410.9675     -7467.2338     -490.86193      0.99646334     24340.61       28.980808      28.980808      28.980808    
     96000   301.549       -8914.0087      1458.8503     -7455.1584     -627.48914      0.99498078     24376.878      28.995195      28.995195      28.995195    
     96100   296.97194     -8878.913       1436.7071     -7442.2059     -84.513384      0.99434581     24392.445      29.001365      29.001365      29.001365    
     96200   313.411       -8948.178       1516.2369     -7431.9411     -458.92142      0.99388111     24403.85       29.005885      29.005885      29.005885    
     96300   303.59416     -8895.2818      1468.7444     -7426.5373     -108.41263      0.99375928     24406.842      29.00707       29.00707       29.00707     
     96400   308.27144     -8918.3545      1491.3724     -7426.9821      80.895952      0.99378262     24406.269      29.006843      29.006843      29.006843    
     96500   309.715       -8932.3574      1498.3561     -7434.0012     -433.14969      0.99405715     24399.528      29.004172      29.004172      29.004172    
     96600   302.81773     -8912.1442      1464.9882     -7447.156      -273.9903       0.99495865     24377.421      28.99541       28.99541       28.99541     
     96700   300.97455     -8922.4544      1456.0711     -7466.3832      259.72426      0.996033       24351.127      28.984981      28.984981      28.984981    
     96800   301.49617     -8943.8758      1458.5947     -7485.2811      239.45988      0.99657408     24337.905      28.979734      28.979734      28.979734    
     96900   299.62714     -8952.3071      1449.5526     -7502.7545      76.825805      0.99661116     24337          28.979375      28.979375      28.979375    
     97000   302.7684      -8980.7243      1464.7495     -7515.9747      630.498        0.99642868     24341.457      28.981144      28.981144      28.981144    
     97100   302.46479     -8989.1108      1463.2807     -7525.8301      340.75887      0.99549199     24364.36       28.990231      28.990231      28.990231    
     97200   305.5746      -9012.0919      1478.3255     -7533.7664     -191.45859      0.99391341     24403.057      29.005571      29.005571      29.005571    
     97300   294.48105     -8963.3105      1424.6566     -7538.6539     -694.01283      0.99234023     24441.744      29.02089       29.02089       29.02089     
     97400   294.76272     -8965.3683      1426.0192     -7539.3491     -885.94534      0.99175516     24456.163      29.026596      29.026596      29.026596    
     97500   292.70927     -8954.4919      1416.0849     -7538.407       46.746666      0.99263788     24434.415      29.017989      29.017989      29.017989    
     97600   295.09436     -8962.1457      1427.6236     -7534.5221      597.91223      0.9937129      24407.981      29.007521      29.007521      29.007521    
     97700   291.93524     -8943.1052      1412.3403     -7530.7649      1364.7642      0.99386561     24404.231      29.006035      29.006035      29.006035    
     97800   301.16363     -8984.4165      1456.9859     -7527.4306      532.86416      0.99223156     24444.421      29.02195       29.02195       29.02195     
     97900   303.42866     -8992.3621      1467.9438     -7524.4183     -428.74682      0.98971697     24506.527      29.046508      29.046508      29.046508    
     98000   287.17819     -8912.3724      1389.3264     -7523.046      -401.07757      0.9876508      24557.795      29.066749      29.066749      29.066749    
     98100   295.54073     -8947.7765      1429.7831     -7517.9934     -200.90119      0.98633485     24590.559      29.07967       29.07967       29.07967     
     98200   302.36151     -8971.3083      1462.781      -7508.5273     -646.27254      0.985798       24603.951      29.084948      29.084948      29.084948    
     98300   306.51508     -8980.1313      1482.8754     -7497.2559     -165.16616      0.98621715     24593.494      29.080826      29.080826      29.080826    
     98400   307.79288     -8973.7529      1489.0572     -7484.6957      188.37643      0.98657206     24584.647      29.077339      29.077339      29.077339    
     98500   310.73608     -8975.7905      1503.296      -7472.4945     -104.60866      0.98630298     24591.354      29.079983      29.079983      29.079983    
     98600   298.24964     -8905.4082      1442.8884     -7462.5198      312.62557      0.98556296     24609.819      29.087259      29.087259      29.087259    
     98700   299.59013     -8902.9396      1449.3735     -7453.5661      400.17658      0.98445944     24637.405      29.098124      29.098124      29.098124    
     98800   312.98633     -8958.2173      1514.1824     -7444.035       17.759895      0.98291182     24676.197      29.113388      29.113388      29.113388    
     98900   310.40069     -8936.8596      1501.6734     -7435.1862     -109.94656      0.98074106     24730.815      29.134851      29.134851      29.134851    
     99000   308.80756     -8924.6846      1493.9661     -7430.7185     -511.57233      0.97850915     24787.224      29.156986      29.156986      29.156986    
     99100   296.31053     -8865.0119      1433.5073     -7431.5045     -58.076873      0.97681369     24830.247      29.173846      29.173846      29.173846    
     99200   299.33482     -8885.3153      1448.1384     -7437.1769      582.43948      0.97543821     24865.261      29.187552      29.187552      29.187552    
     99300   305.25708     -8924.8527      1476.7894     -7448.0633     -482.04044      0.97409232     24899.617      29.200989      29.200989      29.200989    
     99400   302.67443     -8929.4811      1464.2949     -7465.1862     -923.07496      0.97359143     24912.427      29.205996      29.205996      29.205996    
     99500   300.00579     -8937.9333      1451.3844     -7486.5488     -401.37799      0.97433125     24893.511      29.198602      29.198602      29.198602    
     99600   288.25329     -8902.5451      1394.5275     -7508.0176     -482.80615      0.97614578     24847.237      29.180498      29.180498      29.180498    
     99700   288.65909     -8917.9575      1396.4908     -7521.4667      46.102079      0.97875142     24781.088      29.15458       29.15458       29.15458     
     99800   290.43414     -8934.4176      1405.0782     -7529.3394     -634.85752      0.98157223     24709.873      29.126626      29.126626      29.126626    
     99900   302.70912     -8998.2573      1464.4627     -7533.7945     -123.6218       0.98503941     24622.899      29.092412      29.092412      29.092412    
    100000   290.48548     -8942.1374      1405.3266     -7536.8109      278.46588      0.98812314     24546.056      29.062116      29.062116      29.062116    
Loop time of 2223.34 on 1 procs for 100000 steps with 2424 atoms

Performance: 1.943 ns/day, 12.352 hours/ns, 44.977 timesteps/s, 109.025 katom-step/s
99.6% CPU use with 1 MPI tasks x 1 OpenMP threads

MPI task timing breakdown:
Section |  min time  |  avg time  |  max time  |%varavg| %total
---------------------------------------------------------------
Pair    | 1803       | 1803       | 1803       |   0.0 | 81.09
Bond    | 4.2749     | 4.2749     | 4.2749     |   0.0 |  0.19
Kspace  | 191.38     | 191.38     | 191.38     |   0.0 |  8.61
Neigh   | 84.903     | 84.903     | 84.903     |   0.0 |  3.82
Comm    | 12.831     | 12.831     | 12.831     |   0.0 |  0.58
Output  | 1.9404     | 1.9404     | 1.9404     |   0.0 |  0.09
Modify  | 120.03     | 120.03     | 120.03     |   0.0 |  5.40
Other   |            | 4.979      |            |       |  0.22

Nlocal:           2424 ave        2424 max        2424 min
Histogram: 1 0 0 0 0 0 0 0 0 0
Nghost:          12289 ave       12289 max       12289 min
Histogram: 1 0 0 0 0 0 0 0 0 0
Neighs:         865103 ave      865103 max      865103 min
Histogram: 1 0 0 0 0 0 0 0 0 0

Total # of neighbors = 865103
Ave neighs/atom = 356.89068
Ave special neighs/atom = 2.0742574
Neighbor list builds = 2293
Dangerous builds = 0

# ---------------- Save ----------------
write_data      npt_eq_final.data
System init for write_data ...
PPPM initialization ...
  using 12-bit tables for long-range coulomb
  G vector (1/distance) = 0.26366352
  grid = 15 15 15
  stencil order = 5
  estimated absolute RMS force accuracy = 0.031845615
  estimated relative force accuracy = 9.5902122e-05
  using double precision FFTW3
  3d grid and FFT values/proc = 10648 3375
Generated 325 of 325 mixed pair_coeff terms from geometric mixing rule
Total wall time: 0:37:03
