ITEM: TIMESTEP
1131
ITEM: NUMBER OF ATOMS
2424
ITEM: BOX BOUNDS pp pp pp
-5.0000000000000001e-04 2.9999500000000001e+01
2.3501000000000001e-02 3.0023501000000000e+01
-2.5999999999999999e-02 2.9974000000000000e+01
ITEM: ATOMS id mol type q x y z
88 23 25 -0.8476 1.53451 2.66761 2.67586
89 23 26 0.4238 1.34695 3.6738 2.73878
90 23 26 0.4238 0.633191 2.19149 2.72659
486 155 26 0.4238 4.66242 0.240085 3.6142
889 290 25 -0.8476 3.01969 0.563118 3.66653
890 290 26 0.4238 2.62091 1.4111 3.26962
891 290 26 0.4238 2.24284 0.030761 4.04797
1251 410 26 0.4238 1.70675 5.60831 1.11577
1564 515 25 -0.8476 3.91266 3.55868 1.56829
1565 515 26 0.4238 3.06273 3.07535 1.85976
1566 515 26 0.4238 4.53816 3.57713 2.38074
2074 685 25 -0.8476 1.24146 5.33118 2.92615
2075 685 26 0.4238 2.10038 5.527 3.44605
2076 685 26 0.4238 0.467235 5.80304 3.40319
757 246 25 -0.8476 5.52351 3.52208 3.72278
758 246 26 0.4238 5.77562 3.41923 4.7151
1249 410 25 -0.8476 2.37627 5.46471 0.363837
1250 410 26 0.4238 3.11057 4.87282 0.759439
1882 621 25 -0.8476 3.66084 5.57468 4.20008
1883 621 26 0.4238 4.34352 4.81791 4.13559
1112 364 26 0.4238 2.24874 3.89814 5.52385
1778 586 26 0.4238 4.96301 3.56412 0.233714
515 165 26 0.4238 10.3196 1.62955 0.214157
759 246 26 0.4238 6.22546 3.02246 3.18262
1243 408 25 -0.8476 9.72888 1.79185 2.0062
1245 408 26 0.4238 8.71055 1.91067 2.02076
1870 617 25 -0.8476 7.00415 1.71843 1.98168
1871 617 26 0.4238 6.83263 1.49145 1.00191
1872 617 26 0.4238 6.49053 1.03595 2.54816
2369 783 26 0.4238 11.8705 4.3782 5.73154
171 50 26 0.4238 11.0826 2.77065 2.40733
1244 408 26 0.4238 9.92178 0.830176 2.27302
2368 783 25 -0.8476 12.5567 4.12741 5.01488
169 50 25 -0.8476 12.0547 3.07482 2.53397
170 50 26 0.4238 12.1289 3.52063 3.45348
1147 376 25 -0.8476 13.4537 4.48192 0.728215
1148 376 26 0.4238 12.9068 3.9196 1.39121
1149 376 26 0.4238 13.9275 5.19714 1.28392
1270 417 25 -0.8476 17.1711 5.44808 1.70747
1271 417 26 0.4238 17.7057 4.60381 1.48248
1337 439 26 0.4238 14.6573 5.91555 3.58478
1338 439 26 0.4238 15.6509 5.80293 2.26534
1444 475 25 -0.8476 13.6765 1.78843 5.79777
1446 475 26 0.4238 13.2838 2.61654 5.34051
2128 703 25 -0.8476 12.9952 0.578322 2.12059
2129 703 26 0.4238 12.7009 1.5535 2.23779
2130 703 26 0.4238 13.4 0.490628 1.18091
629 203 26 0.4238 14.1028 0.144056 3.26619
1445 475 26 0.4238 14.0626 1.17532 5.07496
2370 783 26 0.4238 13.3277 4.79568 5.08662
1378 453 25 -0.8476 17.8374 3.68007 5.97046
1380 453 26 0.4238 17.5256 4.64466 5.86873
1625 535 26 0.4238 15.6382 5.95025 5.5848
1624 535 25 -0.8476 14.6506 5.89385 5.33728
121 34 25 -0.8476 23.6827 4.24293 0.582903
122 34 26 0.4238 22.6878 4.11137 0.42471
160 47 25 -0.8476 20.4335 4.17982 5.06518
161 47 26 0.4238 19.5387 3.69679 5.09301
325 102 25 -0.8476 22.7926 2.79176 5.62721
327 102 26 0.4238 21.964 3.1897 5.18406
412 131 25 -0.8476 19.2347 0.742682 1.78729
413 131 26 0.4238 19.0894 1.73957 1.6278
414 131 26 0.4238 19.409 0.30879 0.876582
1438 473 25 -0.8476 18.759 3.35291 0.917224
1439 473 26 0.4238 18.2995 2.82128 0.165874
1440 473 26 0.4238 19.6171 3.73834 0.526749
1734 571 26 0.4238 20.8419 5.23254 3.70072
552 177 26 0.4238 22.3433 0.529984 0.602778
986 322 26 0.4238 20.2907 0.101855 2.94189
162 47 26 0.4238 20.3602 4.94467 5.73855
1418 466 26 0.4238 23.7646 4.17653 5.85839
1928 636 26 0.4238 20.2933 0.15545 5.07974
123 34 26 0.4238 24.0612 3.35742 0.930788
790 257 25 -0.8476 24.774 1.79877 1.26679
791 257 26 0.4238 24.0429 1.10044 1.44043
1676 552 26 0.4238 24.0166 1.59759 5.2539
367 116 25 -0.8476 27.0668 4.97286 0.678863
368 116 26 0.4238 27.3447 4.68912 1.61374
369 116 26 0.4238 26.337 5.6694 0.793101
792 257 26 0.4238 25.2327 1.53574 0.410044
964 315 25 -0.8476 26.5071 2.11086 3.35914
965 315 26 0.4238 26.7475 3.10449 3.45205
966 315 26 0.4238 25.8523 2.02511 2.577
1630 537 25 -0.8476 27.1744 4.72668 3.44383
1631 537 26 0.4238 26.3936 5.34696 3.66763
1648 543 25 -0.8476 29.1138 1.30524 2.87268
1649 543 26 0.4238 28.9801 0.761779 2.03685
1650 543 26 0.4238 28.1889 1.60605 3.19168
1675 552 25 -0.8476 24.7694 0.90972 5.16879
989 323 26 0.4238 24.7183 5.85212 4.70882
1917 632 26 0.4238 24.3299 5.74388 1.02823
1632 537 26 0.4238 28.0239 5.21274 3.73751
549 176 26 0.4238 0.00229232 0.360673 3.98746
1677 552 26 0.4238 25.481 1.31241 4.55447
199 60 25 -0.8476 4.66137 7.36365 2.51267
200 60 26 0.4238 4.68474 7.5685 1.51813
201 60 26 0.4238 5.63388 7.41637 2.84213
1884 621 26 0.4238 4.00153 6.31745 3.56866
2362 781 25 -0.8476 0.682933 9.63905 2.70653
2363 781 26 0.4238 0.738154 9.86123 1.70795
2364 781 26 0.4238 1.61041 9.39264 3.01379
1964 648 26 0.4238 3.51758 6.48347 5.6877
1845 608 26 0.4238 5.93933 8.73718 0.134824
1382 454 26 0.4238 9.41664 7.45572 0.145202
242 74 26 0.4238 7.81485 7.97433 3.81661
241 74 25 -0.8476 7.26931 7.50851 3.09871
243 74 26 0.4238 7.87093 7.33639 2.29556
835 272 25 -0.8476 8.38235 9.33519 4.93275
836 272 26 0.4238 7.80907 9.9093 4.30964
837 272 26 0.4238 9.28199 9.79228 4.991
1006 329 25 -0.8476 7.21556 11.0387 3.14863
1007 329 26 0.4238 6.95962 10.3989 2.39902
1381 454 25 -0.8476 8.50874 7.32704 0.598886
1383 454 26 0.4238 7.96508 6.69002 0.0109515
1888 623 25 -0.8476 10.7659 11.1011 1.28932
1889 623 26 0.4238 10.2013 11.6794 1.89132
1890 623 26 0.4238 10.2169 10.9236 0.452814
2250 743 26 0.4238 7.19149 11.939 4.69615
2413 798 25 -0.8476 7.26793 9.71934 0.649611
2414 798 26 0.4238 7.86065 10.3427 0.100964
2415 798 26 0.4238 7.77816 8.83639 0.746996
1008 329 26 0.4238 7.69268 11.8245 2.68906
1549 510 25 -0.8476 10.0608 11.7718 5.0586
1550 510 26 0.4238 10.4863 11.5351 5.958
1272 417 26 0.4238 17.7814 6.06995 2.24177
1336 439 25 -0.8476 14.7304 6.12291 2.58807
1688 556 26 0.4238 14.7964 7.8402 2.95805
1764 581 26 0.4238 16.4245 8.98407 4.20353
1687 556 25 -0.8476 14.9009 8.80743 3.27306
1689 556 26 0.4238 14.3428 9.38088 2.6318
1762 581 25 -0.8476 17.2647 8.94615 4.7886
2053 678 25 -0.8476 14.3373 9.96015 5.66398
2054 678 26 0.4238 14.4682 9.48898 4.76467
2071 684 25 -0.8476 15.5844 11.6021 0.808214
2072 684 26 0.4238 16.1879 10.9477 0.317201
2073 684 26 0.4238 14.7337 11.0962 1.0748
2113 698 25 -0.8476 13.3561 10.1679 1.45561
2114 698 26 0.4238 12.4241 10.5832 1.56456
2115 698 26 0.4238 13.3091 9.58648 0.613066
2257 746 25 -0.8476 17.3523 6.39462 5.88362
2258 746 26 0.4238 17.2274 7.33505 5.5107
1626 535 26 0.4238 14.1589 6.57476 5.92506
1763 581 26 0.4238 17.2309 9.76138 5.40941
2055 678 26 0.4238 14.1917 10.9555 5.45293
143 41 26 0.4238 16.7212 6.47353 0.332448
1307 429 26 0.4238 21.681 7.10041 4.35018
1732 571 25 -0.8476 20.9358 6.09617 3.16253
1733 571 26 0.4238 20.0105 6.54238 3.1436
708 229 26 0.4238 18.4771 9.22257 0.148483
2014 665 25 -0.8476 18.6047 7.37674 2.96103
2015 665 26 0.4238 18.1183 7.98001 3.6248
2016 665 26 0.4238 18.7689 7.93079 2.1129
706 229 25 -0.8476 19.1801 8.79299 0.741913
707 229 26 0.4238 19.5404 9.51295 1.38492
1054 345 25 -0.8476 20.0191 10.3546 2.7367
1055 345 26 0.4238 20.1678 10.1851 3.72581
1056 345 26 0.4238 19.889 11.365 2.62516
1183 388 25 -0.8476 21.0393 6.82057 0.523999
1184 388 26 0.4238 20.3353 7.56801 0.491803
1185 388 26 0.4238 21.164 6.57272 1.50987
1306 429 25 -0.8476 21.857 7.69681 5.16344
1308 429 26 0.4238 22.7631 8.14991 5.01699
1526 502 26 0.4238 23.8136 9.49241 0.820011
1585 522 25 -0.8476 20.0881 9.68048 5.46343
1586 522 26 0.4238 20.7341 8.89249 5.34389
1587 522 26 0.4238 19.1444 9.3459 5.31053
1102 361 25 -0.8476 28.3542 8.34156 2.13703
1103 361 26 0.4238 29.1895 8.8745 2.39025
1104 361 26 0.4238 28.5043 7.97922 1.19379
2017 666 25 -0.8476 29.1009 6.55358 4.05777
2018 666 26 0.4238 28.9572 7.01067 4.96051
2019 666 26 0.4238 28.7538 7.19396 3.33881
988 323 25 -0.8476 25.1304 6.45159 3.98052
1525 502 25 -0.8476 24.1541 9.17625 1.73577
1527 502 26 0.4238 24.4331 8.20063 1.60871
1876 619 25 -0.8476 24.4407 11.7553 2.55469
1924 635 25 -0.8476 24.2039 8.95975 4.49539
1925 635 26 0.4238 24.1166 9.19921 3.50635
1926 635 26 0.4238 24.5781 9.77515 4.9851
225 68 26 0.4238 27.0885 11.8633 1.25739
250 77 25 -0.8476 28.7639 10.3486 4.63842
251 77 26 0.4238 28.0814 10.6273 3.92491
252 77 26 0.4238 29.6346 10.1614 4.14386
592 191 25 -0.8476 26.993 10.847 2.68372
593 191 26 0.4238 26.0057 11.1051 2.75369
594 191 26 0.4238 27.0605 9.87337 2.39789
990 323 26 0.4238 24.901 7.41567 4.23462
1878 619 26 0.4238 24.2081 10.8334 2.18221
1915 632 25 -0.8476 24.8779 6.56191 1.3151
1916 632 26 0.4238 25.0045 6.48965 2.33178
2318 766 26 0.4238 28.2716 8.95995 5.68699
1817 599 26 0.4238 26.1085 11.6137 5.90605
825 268 26 0.4238 28.254 11.6459 5.65255
178 53 25 -0.8476 3.59677 17.0273 3.13469
179 53 26 0.4238 2.79997 16.6148 2.64981
180 53 26 0.4238 3.24755 17.8423 3.65125
1174 385 25 -0.8476 1.71505 16.0331 1.27619
1175 385 26 0.4238 2.44757 15.5846 0.7368
1176 385 26 0.4238 1.14196 16.5867 0.636277
1204 395 25 -0.8476 4.9059 17.1263 0.755281
1205 395 26 0.4238 4.5542 17.2781 1.7042
1206 395 26 0.4238 4.58187 16.1962 0.481609
2010 663 26 0.4238 0.481696 14.9558 2.05004
2251 744 25 -0.8476 5.86001 16.2289 4.54848
2253 744 26 0.4238 5.01634 16.3333 3.9814
1490 490 26 0.4238 5.53946 14.9147 5.5577
721 234 25 -0.8476 4.06555 14.5721 0.394032
722 234 26 0.4238 3.64327 13.7467 0.784168
723 234 26 0.4238 5.05554 14.3631 0.234766
185 55 26 0.4238 10.4597 16.1247 5.16524
817 266 25 -0.8476 10.078 15.7788 0.0968954
818 266 26 0.4238 9.15712 16.2184 0.108458
819 266 26 0.4238 10.236 15.439 1.05142
1135 372 25 -0.8476 7.59914 16.8654 0.657992
1137 372 26 0.4238 7.95622 17.4859 1.38867
1551 510 26 0.4238 9.11451 12.11 5.23942
1654 545 25 -0.8476 8.75418 15.7209 4.87577
1655 545 26 0.4238 8.83994 15.4765 5.87015
1656 545 26 0.4238 7.76279 15.7894 4.66481
1741 574 25 -0.8476 10.1147 14.8919 2.65527
1742 574 26 0.4238 10.8648 14.3239 3.0622
1743 574 26 0.4238 9.58776 15.2922 3.43666
2002 661 25 -0.8476 8.39787 12.9997 1.77479
2003 661 26 0.4238 9.02841 13.7437 2.07891
2004 661 26 0.4238 7.76895 13.3954 1.07799
2252 744 26 0.4238 6.19033 17.1794 4.74259
184 55 25 -0.8476 11.4133 16.3422 5.45311
271 84 25 -0.8476 11.9103 13.2621 3.83662
273 84 26 0.4238 11.1384 12.6883 4.1998
1136 372 26 0.4238 6.59336 17.0492 0.603053
2248 743 25 -0.8476 7.43669 12.4569 5.54168
2249 743 26 0.4238 6.65098 13.0775 5.75606
680 220 26 0.4238 7.15365 15.2641 0.164616
205 62 25 -0.8476 16.5619 17.4177 3.3565
272 84 26 0.4238 12.7584 12.8883 4.26555
295 92 25 -0.8476 17.8974 13.0231 4.68695
296 92 26 0.4238 17.7378 12.3253 5.41435
297 92 26 0.4238 17.5382 13.9273 5.02801
310 97 25 -0.8476 15.7767 13.1586 2.99294
311 97 26 0.4238 16.6925 13.1118 3.44264
312 97 26 0.4238 15.8208 12.5944 2.1365
640 207 25 -0.8476 13.86 15.0102 2.90905
641 207 26 0.4238 13.0485 14.4597 3.19161
642 207 26 0.4238 14.6673 14.3738 2.90847
886 289 25 -0.8476 13.7902 17.2271 4.57122
887 289 26 0.4238 12.8419 16.9679 4.85343
888 289 26 0.4238 14.0823 16.5182 3.90124
1851 610 26 0.4238 14.8873 17.4134 0.641565
1943 641 26 0.4238 13.6806 15.8563 1.54818
1976 652 26 0.4238 16.7333 15.992 4.43635
2101 694 25 -0.8476 14.1978 12.5826 5.1024
2102 694 26 0.4238 14.0697 13.4138 5.68599
2103 694 26 0.4238 14.8701 12.8172 4.365
2090 690 26 0.4238 17.16 17.4184 0.508517
207 62 26 0.4238 16.1487 17.4371 2.43405
611 197 26 0.4238 12.3475 17.6377 1.22929
206 62 26 0.4238 17.5735 17.5637 3.24909
1975 652 25 -0.8476 16.796 15.3815 5.24817
1368 449 26 0.4238 15.106 17.5872 5.69841
1942 641 25 -0.8476 13.5894 16.4206 0.691685
1944 641 26 0.4238 13.1839 15.8115 -0.0250615
1877 619 26 0.4238 23.5559 12.2628 2.67485
925 302 25 -0.8476 18.486 14.2825 0.70375
926 302 26 0.4238 18.2396 15.2699 0.670633
927 302 26 0.4238 19.1306 14.0961 29.9348
1081 354 25 -0.8476 21.2856 16.3706 3.43479
1082 354 26 0.4238 21.6752 16.4526 2.49571
1083 354 26 0.4238 21.9879 15.959 4.04134
1087 356 25 -0.8476 22.2739 13.3032 2.77711
1088 356 26 0.4238 22.4355 13.9273 3.56052
1089 356 26 0.4238 21.2554 13.1513 2.72672
1105 362 25 -0.8476 22.262 16.6345 0.887848
1107 362 26 0.4238 22.2812 15.6907 0.497649
1798 593 25 -0.8476 22.712 14.0455 0.196632
1800 593 26 0.4238 22.6129 13.6767 1.14643
2089 690 25 -0.8476 18.0789 16.9831 0.5215
2091 690 26 0.4238 18.6107 17.3951 1.29168
2107 696 25 -0.8476 19.6436 12.9877 2.69322
2108 696 26 0.4238 19.1684 13.4878 1.9271
2109 696 26 0.4238 19.0265 13.0488 3.51409
1106 362 26 0.4238 23.2084 16.8352 1.21869
2341 774 25 -0.8476 23.2383 14.9334 4.90336
1592 524 26 0.4238 21.3803 17.8627 29.9662
1621 534 25 -0.8476 19.1545 17.8885 2.94961
1622 534 26 0.4238 19.8986 17.1975 3.12275
2343 774 26 0.4238 23.1544 14.0897 5.48666
2008 663 25 -0.8476 29.8085 14.2172 2.24252
2009 663 26 0.4238 29.8376 13.5721 1.455
217 66 25 -0.8476 27.7859 14.3578 4.04948
218 66 26 0.4238 28.5839 14.2875 3.40195
219 66 26 0.4238 27.845 13.5822 4.71218
223 68 25 -0.8476 27.1394 12.1965 0.29272
224 68 26 0.4238 26.4516 12.9433 0.168439
457 146 25 -0.8476 25.2735 14.4312 3.14612
458 146 26 0.4238 26.2517 14.456 3.46537
459 146 26 0.4238 25.0785 13.4755 2.8558
778 253 25 -0.8476 24.7758 16.8175 1.80472
779 253 26 0.4238 25.2308 16.7763 0.88926
780 253 26 0.4238 25.0268 15.965 2.31193
844 275 25 -0.8476 27.5558 16.3646 5.85849
845 275 26 0.4238 27.0199 17.135 5.45327
846 275 26 0.4238 27.6856 15.6624 5.12255
1215 398 26 0.4238 25.1439 18.0033 5.65989
2342 774 26 0.4238 24.0775 14.8254 4.32492
744 241 26 0.4238 28.7526 12.449 0.098581
2241 740 26 0.4238 1.74409 19.0956 4.86685
739 240 25 -0.8476 3.55635 22.6294 2.37214
740 240 26 0.4238 3.70171 23.3553 1.67015
741 240 26 0.4238 4.48551 22.2905 2.64361
760 247 25 -0.8476 1.54189 20.9667 2.40581
761 247 26 0.4238 1.4836 20.4903 1.50583
762 247 26 0.4238 2.30789 21.6605 2.33084
1483 488 25 -0.8476 4.93367 23.6131 5.24894
1485 488 26 0.4238 4.80218 22.8108 4.64449
2239 740 25 -0.8476 2.5942 19.2605 4.30667
2240 740 26 0.4238 2.31464 19.8993 3.56427
2329 770 25 -0.8476 1.15574 22.2351 4.80341
2330 770 26 0.4238 1.23214 21.7237 3.92732
2331 770 26 0.4238 1.55522 23.1587 4.66286
343 108 25 -0.8476 0.25686 19.0047 5.54482
1970 650 26 0.4238 3.85507 19.7924 5.38178
2396 792 26 0.4238 5.85116 19.2394 5.35818
501 160 26 0.4238 5.89148 21.2899 0.103679
37 6 25 -0.8476 10.5698 19.4966 3.64236
38 6 26 0.4238 11.3236 19.5856 4.32722
39 6 26 0.4238 10.9973 19.1161 2.78907
661 214 25 -0.8476 6.01993 21.9789 3.07086
662 214 26 0.4238 6.40944 21.3816 2.3383
663 214 26 0.4238 6.69066 22.7347 3.22401
685 222 25 -0.8476 9.52751 21.9658 4.41927
686 222 26 0.4238 8.67908 21.8776 4.97495
687 222 26 0.4238 9.75392 21.0447 4.04202
1060 347 25 -0.8476 7.88667 23.9331 3.23941
1062 347 26 0.4238 8.67766 23.4576 3.66766
1786 589 25 -0.8476 7.19633 20.7092 0.997744
1787 589 26 0.4238 7.63581 19.9092 1.45824
1788 589 26 0.4238 7.87545 21.1249 0.353589
2348 776 26 0.4238 7.67239 23.4323 0.10086
2377 786 25 -0.8476 8.14367 18.7121 2.62687
2378 786 26 0.4238 9.0692 18.9239 3.00282
2379 786 26 0.4238 7.49716 18.6904 3.41823
2397 792 26 0.4238 7.44774 18.9171 5.63696
2408 796 26 0.4238 11.1878 22.469 4.11532
610 197 25 -0.8476 11.9322 18.5344 1.47344
2349 776 26 0.4238 7.49055 24.0263 1.63034
883 288 25 -0.8476 7.14005 22.1632 6.0302
884 288 26 0.4238 6.44523 22.8607 5.74993
2395 792 25 -0.8476 6.67335 18.7473 4.98863
2407 796 25 -0.8476 12.1593 22.7757 4.0409
2409 796 26 0.4238 12.6585 22.4327 4.85819
190 57 25 -0.8476 17.4819 20.3595 0.992703
192 57 26 0.4238 17.6594 20.5908 1.97496
247 76 25 -0.8476 16.0688 22.6613 0.772512
248 76 26 0.4238 16.5515 21.7708 0.641
612 197 26 0.4238 12.7049 19.1986 1.56205
854 278 26 0.4238 17.2986 23.4167 1.64049
1090 357 25 -0.8476 14.6868 23.3452 2.98522
1091 357 26 0.4238 15.0673 23.0171 2.09249
1092 357 26 0.4238 13.7273 23.0221 3.07032
1693 558 25 -0.8476 15.3698 19.8361 4.15402
1694 558 26 0.4238 16.2211 20.3927 4.07068
1695 558 26 0.4238 15.6302 18.8659 3.99404
1774 585 25 -0.8476 17.879 23.5173 4.7519
1775 585 26 0.4238 17.0263 23.6332 5.31068
1849 610 25 -0.8476 15.5787 18.1747 0.740407
1850 610 26 0.4238 15.0408 18.9828 1.09532
1879 620 25 -0.8476 12.8313 21.9589 0.209812
2119 700 25 -0.8476 14.0906 20.112 1.74215
2120 700 26 0.4238 13.6924 20.964 1.33145
2121 700 26 0.4238 14.4231 20.3226 2.68514
2154 711 26 0.4238 13.5095 23.5348 0.119545
2390 790 26 0.4238 13.3534 19.2475 5.02481
826 269 25 -0.8476 17.784 21.0269 3.66112
828 269 26 0.4238 17.7804 21.9858 4.02247
855 278 26 0.4238 17.9355 23.8514 3.09504
2389 790 25 -0.8476 12.5602 19.6573 5.51758
191 57 26 0.4238 16.9122 19.5249 0.966282
853 278 25 -0.8476 18.0825 23.9003 2.08388
280 87 25 -0.8476 20.8651 22.4845 5.13543
281 87 26 0.4238 20.4003 21.6013 4.9708
282 87 26 0.4238 20.8429 23.0179 4.26309
827 269 26 0.4238 18.5797 20.553 4.09477
856 279 25 -0.8476 20.7437 23.7437 2.72822
857 279 26 0.4238 19.8136 23.5808 2.34322
1192 391 25 -0.8476 22.5688 19.39 5.28313
1193 391 26 0.4238 22.925 18.5787 5.79534
1194 391 26 0.4238 23.0627 19.4071 4.38925
1623 534 26 0.4238 19.4014 18.7023 3.50667
1987 656 25 -0.8476 23.0062 22.6741 1.62503
1988 656 26 0.4238 22.6045 22.2851 0.758027
1989 656 26 0.4238 22.2146 23.0532 2.15096
2215 732 25 -0.8476 19.8454 19.7966 4.90809
2216 732 26 0.4238 20.8329 19.5811 5.08562
2217 732 26 0.4238 19.301 19.4438 5.70228
1628 536 26 0.4238 24.0128 19.8891 2.33983
1580 520 26 0.4238 23.9568 23.7312 0.604143
1213 398 25 -0.8476 25.8657 18.402 5.05409
1214 398 26 0.4238 25.3797 18.7685 4.23379
1657 546 25 -0.8476 28.948 21.7888 1.78348
1658 546 26 0.4238 29.8803 21.5202 2.08371
1659 546 26 0.4238 28.4622 22.1683 2.59701
2294 758 26 0.4238 24.9711 23.5588 5.01675
464 148 26 0.4238 28.2573 21.4479 0.338606
955 312 25 -0.8476 27.7123 20.3412 5.5109
956 312 26 0.4238 27.0308 19.6086 5.29589
1597 526 25 -0.8476 27.6388 22.6823 4.01857
1598 526 26 0.4238 27.6372 21.8229 4.57771
1599 526 26 0.4238 26.6756 22.9234 3.80134
1627 536 25 -0.8476 24.1815 19.1752 3.0318
1629 536 26 0.4238 24.395 18.302 2.5378
1984 655 25 -0.8476 24.8835 23.6708 3.37075
1986 655 26 0.4238 24.3303 23.0742 2.75489
345 108 26 0.4238 29.4322 19.5734 5.38152
484 155 25 -0.8476 5.62769 29.918 3.45527
485 155 26 0.4238 5.56285 28.9806 3.05045
1484 488 26 0.4238 4.736 24.4421 4.68618
653 211 26 0.4238 0.793956 24.9814 5.09363
1233 404 26 0.4238 5.12629 28.5165 0.785047
1327 436 25 -0.8476 5.65161 27.4411 2.40227
1328 436 26 0.4238 4.91593 26.8316 2.77343
1852 611 25 -0.8476 4.0106 25.5517 3.45898
1853 611 26 0.4238 3.09853 25.383 3.89134
1854 611 26 0.4238 3.9992 25.1464 2.52269
2236 739 25 -0.8476 4.51589 24.6886 0.858605
547 176 25 -0.8476 0.526864 29.6857 4.54697
652 211 25 -0.8476 1.80591 24.9218 4.99806
654 211 26 0.4238 2.21716 24.9029 5.93129
2237 739 26 0.4238 4.31833 25.2874 0.0556927
2238 739 26 0.4238 5.50546 24.4374 0.798476
1061 347 26 0.4238 7.88675 24.9079 3.55128
1698 559 26 0.4238 10.4845 25.895 0.908037
274 85 25 -0.8476 10.7168 29.2162 2.60748
275 85 26 0.4238 11.638 29.633 2.42275
276 85 26 0.4238 10.6587 29.0252 3.61314
409 130 25 -0.8476 7.89383 26.6688 3.65658
410 130 26 0.4238 7.8526 27.4725 4.28271
411 130 26 0.4238 8.8292 26.6413 3.23602
1254 411 26 0.4238 10.8123 25.5262 5.4476
1329 436 26 0.4238 6.52759 27.1119 2.82308
1459 480 25 -0.8476 10.3741 26.4908 2.61504
1460 480 26 0.4238 11.0784 26.0657 3.22553
1461 480 26 0.4238 10.6447 27.463 2.471
1519 500 25 -0.8476 7.70431 29.1149 5.06465
1521 500 26 0.4238 6.9352 29.5109 4.51586
1537 506 25 -0.8476 7.51024 26.7909 0.257355
1538 506 26 0.4238 7.46561 25.7757 0.381841
1539 506 26 0.4238 6.70221 27.1853 0.728832
1696 559 25 -0.8476 10.9114 25.8836 -0.0172879
1697 559 26 0.4238 11.667 26.5823 0.0167252
2233 738 25 -0.8476 9.33664 28.8251 0.221953
2234 738 26 0.4238 9.8154 28.8495 1.11835
2235 738 26 0.4238 8.6639 28.0572 0.242496
2338 773 25 -0.8476 10.2757 28.3727 5.14354
2339 773 26 0.4238 9.31736 28.7432 5.13031
2347 776 25 -0.8476 7.18598 24.1399 0.656829
2340 773 26 0.4238 10.21 27.3778 5.34957
1726 569 25 -0.8476 17.0695 29.332 2.60824
1999 660 25 -0.8476 12.1088 25.4246 4.40436
2001 660 26 0.4238 12.2068 24.4361 4.14561
103 28 25 -0.8476 15.7375 25.67 3.6303
104 28 26 0.4238 15.2816 25.9288 4.50305
105 28 26 0.4238 15.4189 24.7147 3.40579
628 203 25 -0.8476 14.7947 30.0044 4.01055
630 203 26 0.4238 15.6831 29.7799 3.55009
684 221 26 0.4238 14.8047 29.048 5.42237
703 228 25 -0.8476 14.7492 26.4812 1.23051
704 228 26 0.4238 14.4052 25.6479 0.726497
705 228 26 0.4238 15.0836 26.1755 2.1472
767 249 26 0.4238 17.3088 26.3563 3.40431
768 249 26 0.4238 17.8367 27.8904 3.19437
1682 554 26 0.4238 12.9907 28.8068 0.0381827
1683 554 26 0.4238 13.4942 27.3694 0.65093
1727 569 26 0.4238 17.8448 29.9757 2.4328
1728 569 26 0.4238 16.8909 28.8451 1.72387
2000 660 26 0.4238 12.9721 25.7056 4.86838
2296 759 25 -0.8476 16.7806 27.8993 0.330749
2297 759 26 0.4238 15.9344 27.3754 0.596399
718 233 25 -0.8476 14.3346 26.0317 5.9606
1681 554 25 -0.8476 12.7034 27.8515 0.211891
1715 565 26 0.4238 17.8558 26.5363 0.308764
1776 585 26 0.4238 18.5778 24.1668 5.1122
766 249 25 -0.8476 18.1519 26.9378 3.38538
1311 430 26 0.4238 18.9379 26.27 4.68245
1714 565 25 -0.8476 18.4195 25.707 0.110232
1716 565 26 0.4238 18.3706 25.0893 0.92765
550 177 25 -0.8476 22.8342 29.8876 1.23661
551 177 26 0.4238 23.1687 29.1078 0.670927
651 210 26 0.4238 23.2689 28.0631 4.80555
858 279 26 0.4238 20.9078 24.7502 2.64827
985 322 25 -0.8476 21.0455 29.7173 3.51859
987 322 26 0.4238 21.8642 29.6855 2.91305
997 326 25 -0.8476 21.6577 27.6416 5.24141
998 326 26 0.4238 21.3009 28.334 4.5802
1225 402 25 -0.8476 20.7944 26.4235 2.32952
1226 402 26 0.4238 20.8352 26.7861 1.37502
1227 402 26 0.4238 19.8966 26.7024 2.71925
1309 430 25 -0.8476 19.4159 25.8136 5.46685
1310 430 26 0.4238 20.377 26.1472 5.45255
1414 465 25 -0.8476 23.477 25.9762 3.03389
1415 465 26 0.4238 22.4984 26.1181 2.79052
1416 465 26 0.4238 23.7947 26.8283 3.48431
1985 655 26 0.4238 24.4765 24.6092 3.27752
146 42 26 0.4238 28.6919 23.9999 4.57432
649 210 25 -0.8476 24.1611 28.3344 4.3864
145 42 25 -0.8476 28.9693 24.8471 5.08198
147 42 26 0.4238 28.0975 25.2836 5.40432
365 115 26 0.4238 24.7207 27.524 0.0315543
532 171 25 -0.8476 25.9002 26.4625 0.912952
533 171 26 0.4238 26.8358 26.3476 0.564218
534 171 26 0.4238 25.9687 26.6415 1.91713
548 176 26 0.4238 0.0837908 28.7735 4.38595
650 210 26 0.4238 24.3541 29.2993 4.66608
1117 366 25 -0.8476 29.1144 27.4559 3.95426
1118 366 26 0.4238 29.3258 26.4957 4.19508
1119 366 26 0.4238 28.1268 27.492 3.70527
1581 520 26 0.4238 24.9758 25.0105 0.384664
1930 637 25 -0.8476 26.4079 27.0896 3.60012
1931 637 26 0.4238 25.6092 27.702 3.79161
1932 637 26 0.4238 26.4936 26.4813 4.41542
2151 710 26 0.4238 1.06627 0.603252 5.88098
385 122 25 -0.8476 4.22899 1.22045 9.20247
387 122 26 0.4238 4.19019 2.13518 8.73465
646 209 25 -0.8476 3.82604 1.49608 11.8143
647 209 26 0.4238 3.98211 1.40773 10.8028
1111 364 25 -0.8476 1.98387 3.73637 6.48371
1113 364 26 0.4238 1.71896 2.74259 6.56485
1396 459 25 -0.8476 4.10388 3.67244 8.16285
1397 459 26 0.4238 3.29362 3.77085 7.54439
1398 459 26 0.4238 3.99413 4.34472 8.92555
1449 476 26 0.4238 5.39802 3.48052 7.03774
2149 710 25 -0.8476 1.49571 1.10755 6.65984
2150 710 26 0.4238 2.00833 0.427512 7.21042
2328 769 26 0.4238 5.74947 0.705955 9.705
1912 631 25 -0.8476 1.21527 5.89932 7.92769
1913 631 26 0.4238 1.3687 5.02257 7.4195
1914 631 26 0.4238 0.545556 5.70852 8.67502
386 122 26 0.4238 3.7104 0.555252 8.63036
2082 687 26 0.4238 0.356079 30.0036 11.4139
79 20 25 -0.8476 3.85212 5.50467 10.2027
1700 560 26 0.4238 4.29773 4.5789 11.5356
1447 476 25 -0.8476 6.12316 3.32774 6.33496
1448 476 26 0.4238 7.0035 3.242 6.8096
2327 769 26 0.4238 6.76859 0.133785 10.8806
920 300 26 0.4238 7.57567 3.8029 11.5646
1510 497 25 -0.8476 10.896 4.6657 7.16924
1511 497 26 0.4238 10.328 3.83413 7.34815
1512 497 26 0.4238 10.3534 5.47145 7.49741
1528 503 25 -0.8476 9.51461 2.42433 7.92711
1529 503 26 0.4238 8.98991 1.55753 7.78993
1530 503 26 0.4238 9.2483 2.80909 8.84092
2051 677 26 0.4238 7.53378 0.175932 8.50526
2221 734 25 -0.8476 12.0741 1.42603 7.94154
2223 734 26 0.4238 11.1771 1.91198 7.86596
2380 787 25 -0.8476 9.07448 3.66678 10.3238
2381 787 26 0.4238 9.03267 4.67507 10.4793
2382 787 26 0.4238 9.75674 3.28034 10.9824
2326 769 25 -0.8476 6.63251 0.213633 9.86127
259 80 25 -0.8476 16.4377 0.854893 10.2492
260 80 26 0.4238 15.449 1.09918 10.1979
261 80 26 0.4238 16.9764 1.70897 10.3249
877 286 25 -0.8476 13.2073 5.95446 11.3462
879 286 26 0.4238 12.939 5.64275 10.4131
953 311 26 0.4238 15.0673 2.02277 6.70728
1291 424 25 -0.8476 13.8084 1.53597 9.97446
1292 424 26 0.4238 14.2267 2.45653 9.82181
1293 424 26 0.4238 13.0895 1.42248 9.24999
1379 453 26 0.4238 17.0419 3.1313 6.31237
1516 499 25 -0.8476 13.0909 5.4635 8.57537
1518 499 26 0.4238 12.2795 5.07766 8.08451
1783 588 25 -0.8476 15.0977 3.79858 9.29942
1784 588 26 0.4238 14.3786 4.44615 8.95848
1785 588 26 0.4238 15.5173 4.22863 10.1289
2098 693 25 -0.8476 15.7011 4.97995 11.6775
2100 693 26 0.4238 14.77 5.40191 11.5989
2222 734 26 0.4238 12.6245 1.62215 7.0976
952 311 25 -0.8476 15.9447 2.22537 7.19648
954 311 26 0.4238 15.7068 2.77338 8.02698
996 325 26 0.4238 13.4818 0.29998 11.0283
2189 723 26 0.4238 16.9211 0.751209 7.05724
907 296 25 -0.8476 19.314 2.21929 7.70565
908 296 26 0.4238 19.5106 1.43205 7.07737
909 296 26 0.4238 18.7609 2.8876 7.16332
73 18 25 -0.8476 20.0355 4.81924 10.9614
74 18 26 0.4238 20.9417 4.66622 10.5013
75 18 26 0.4238 19.4808 3.96482 10.8282
266 82 26 0.4238 23.8694 2.09119 11.2996
326 102 26 0.4238 22.5224 2.55051 6.58584
1021 334 25 -0.8476 21.9173 2.45762 8.14484
1022 334 26 0.4238 22.0764 3.27693 8.74076
1023 334 26 0.4238 20.9018 2.37399 8.01974
1419 466 26 0.4238 23.7082 5.5075 6.83096
1471 484 25 -0.8476 18.8208 2.45595 10.3852
1472 484 26 0.4238 18.9865 2.28173 9.39077
1473 484 26 0.4238 18.985 1.58583 10.8938
1576 519 25 -0.8476 22.3796 4.54864 9.71335
1577 519 26 0.4238 22.832 5.32129 9.2148
1578 519 26 0.4238 23.1113 4.0159 10.1976
1927 636 25 -0.8476 19.8855 0.227104 6.01383
667 216 25 -0.8476 18.9452 0.167437 11.9619
1012 331 25 -0.8476 23.1917 0.286196 9.01544
1013 331 26 0.4238 22.7206 1.14407 8.70341
1014 331 26 0.4238 23.1985 0.299816 10.0396
1735 572 25 -0.8476 23.2584 0.519846 11.7369
265 82 25 -0.8476 24.2205 2.94556 10.8574
1417 466 25 -0.8476 24.1933 5.08868 6.03698
267 82 26 0.4238 25.006 2.67048 10.2599
898 293 25 -0.8476 29.3774 5.67616 10.0285
899 293 26 0.4238 29.6326 5.17032 10.8626
1939 640 25 -0.8476 26.8595 4.99641 9.193
1940 640 26 0.4238 27.8389 5.15979 9.43904
1941 640 26 0.4238 26.7215 3.98468 9.1234
2059 680 25 -0.8476 24.9679 5.53447 11.1363
2060 680 26 0.4238 24.6834 4.55967 11.2538
2061 680 26 0.4238 25.7246 5.5285 10.4505
1072 351 25 -0.8476 25.5172 0.0979497 7.68713
1073 351 26 0.4238 24.6262 0.101031 8.19755
1074 351 26 0.4238 25.3142 0.372183 6.72204
1078 353 25 -0.8476 27.6563 1.17373 11.3791
1080 353 26 0.4238 28.2136 1.87875 11.8667
1150 377 25 -0.8476 26.344 2.2577 9.30205
1151 377 26 0.4238 26.158 1.53067 8.61133
1152 377 26 0.4238 26.8995 1.82645 10.0516
2290 757 25 -0.8476 2.89034 9.95588 6.85183
2292 757 26 0.4238 3.49981 9.18989 6.60534
81 20 26 0.4238 4.37009 6.15045 9.60107
340 107 25 -0.8476 0.804271 10.3254 9.56786
341 107 26 0.4238 1.22195 9.87724 10.3793
342 107 26 0.4238 0.784759 9.63463 8.805
1178 386 26 0.4238 4.56405 11.2389 11.4741
1963 648 25 -0.8476 3.39376 6.97343 6.57606
1965 648 26 0.4238 2.56685 6.58814 7.02917
2140 707 25 -0.8476 0.640306 8.51422 7.62178
2141 707 26 0.4238 0.948167 7.5521 7.78887
2291 757 26 0.4238 1.98987 9.54317 7.08385
2299 760 25 -0.8476 5.31828 6.99704 8.42392
2300 760 26 0.4238 4.5746 6.99319 7.7139
117 32 26 0.4238 1.0153 11.9334 9.26863
1177 386 25 -0.8476 5.33591 11.6149 10.9272
2270 750 26 0.4238 3.19684 11.6217 7.20057
80 20 26 0.4238 3.20504 6.04674 10.7697
1646 542 26 0.4238 5.48402 8.03698 11.9465
454 145 25 -0.8476 11.4458 8.62011 8.44558
455 145 26 0.4238 11.8655 8.63316 9.38627
456 145 26 0.4238 10.7225 7.89484 8.43633
724 235 25 -0.8476 9.53322 6.70955 8.36297
725 235 26 0.4238 8.75668 7.20961 7.91511
726 235 26 0.4238 9.26553 6.5376 9.33491
940 307 25 -0.8476 10.9518 11.0985 7.53133
941 307 26 0.4238 11.1507 10.1409 7.84632
946 309 25 -0.8476 6.88642 10.1678 9.2015
947 309 26 0.4238 7.53364 10.8433 8.7793
948 309 26 0.4238 6.20767 10.7069 9.74461
1384 455 25 -0.8476 6.61906 7.88041 10.6228
1385 455 26 0.4238 6.86064 8.80432 10.2542
1386 455 26 0.4238 6.06501 7.4259 9.89304
2167 716 25 -0.8476 7.52912 8.23561 7.35251
2168 716 26 0.4238 7.77962 8.60398 6.43039
2169 716 26 0.4238 7.27149 9.02863 7.94477
2301 760 26 0.4238 6.16302 7.31975 7.94633
1179 386 26 0.4238 6.1526 11.655 11.5585
942 307 26 0.4238 10.0028 11.3341 7.8416
1129 370 25 -0.8476 8.46497 11.9547 8.03752
291 90 26 0.4238 9.1737 6.44417 11.8963
289 90 25 -0.8476 8.80349 6.32155 10.9665
290 90 26 0.4238 7.9451 6.88339 10.9083
1045 342 25 -0.8476 13.4992 7.73725 6.97021
1046 342 26 0.4238 12.6794 8.06969 7.48972
1047 342 26 0.4238 13.8733 8.55826 6.48582
1297 426 25 -0.8476 15.134 11.2695 7.97051
1298 426 26 0.4238 14.7701 10.6371 7.25753
1299 426 26 0.4238 14.3447 11.8428 8.28313
1517 499 26 0.4238 13.3662 6.30643 8.07207
2025 668 26 0.4238 16.4056 11.9022 8.95074
1903 628 25 -0.8476 17.4427 11.0652 6.56555
1905 628 26 0.4238 16.5496 11.1879 7.05101
637 206 25 -0.8476 12.7027 8.55957 10.8034
639 206 26 0.4238 13.3055 9.18973 11.2988
23 1 23 0.1177 17.8262 9.90393 11.5402
638 206 26 0.4238 12.9401 7.60611 11.0876
2259 746 26 0.4238 18.3194 6.33622 6.21085
229 70 25 -0.8476 19.9936 6.357 6.67793
230 70 26 0.4238 20.7703 6.90132 6.29601
1209 396 26 0.4238 22.3896 11.9764 6.69776
231 70 26 0.4238 19.9403 6.5444 7.6811
350 110 26 0.4238 19.7264 6.1571 9.99106
349 110 25 -0.8476 19.5365 6.93162 9.34316
351 110 26 0.4238 18.5613 7.16097 9.43641
445 142 25 -0.8476 21.7491 8.53736 9.16482
446 142 26 0.4238 20.8725 8.01868 9.25469
447 142 26 0.4238 22.2848 8.36627 10.0248
1351 444 25 -0.8476 21.3821 10.8161 7.59817
1352 444 26 0.4238 20.8565 10.4701 6.78996
1353 444 26 0.4238 21.5691 10.0105 8.20146
1639 540 25 -0.8476 23.2211 7.67994 11.2746
1641 540 26 0.4238 23.786 6.87013 11.0207
1702 561 25 -0.8476 23.4417 6.57074 8.2205