LAMMPS data file via write_data, version 22 Jul 2025, timestep = 50000, units = real

2424 atoms
26 atom types
1625 bonds
26 bond types
843 angles
44 angle types
54 dihedrals
54 dihedral types
14 impropers
14 improper types

-0.0005 29.9995 xlo xhi
0.023501 30.023501 ylo yhi
-0.026 29.974 zlo zhi

Masses

1 12.011
2 14.007
3 12.011
4 14.007
5 12.011
6 12.011
7 12.011
8 14.007
9 12.011
10 12.011
11 14.007
12 12.011
13 15.999
14 15.999
15 1.008
16 1.008
17 1.008
18 1.008
19 1.008
20 1.008
21 1.008
22 1.008
23 1.008
24 1.008
25 15.9994
26 1.00794

Pair Coeffs # lj/cut/coul/long

1 0.066 3.5
2 0.17 3.25
3 0.07 3.55
4 0.17 3.25
5 0.07 3.55
6 0.08 3.5
7 0.07 3.55
8 0.17 3.25
9 0.066 3.5
10 0.07 3.55
11 0.17 3.25
12 0.066 3.5
13 0.21 2.96
14 0.21 2.96
15 0.03 2.5
16 0.03 2.5
17 0.03 2.5
18 0.03 2.42
19 0.03 2.5
20 0.03 2.5
21 0.03 2.5
22 0.03 2.5
23 0.03 2.5
24 0.03 2.5
25 0.1553 3.166
26 0 0

Bond Coeffs # harmonic

1 337 1.475
2 477 1.343
3 488 1.335
4 410 1.394
5 436 1.374
6 447 1.419
7 418 1.388
8 337 1.475
9 418 1.388
10 427 1.381
11 337 1.475
12 570 1.229
13 570 1.229
14 340 1.09
15 340 1.09
16 340 1.09
17 367 1.08
18 340 1.09
19 340 1.09
20 340 1.09
21 340 1.09
22 340 1.09
23 340 1.09
24 469 1.404
25 418 1.388
26 553 1

Angle Coeffs # harmonic

1 63 112.4
2 70 120
3 70 110
4 70 125.8
5 77.27 119.73
6 70 111.3
7 63 112.4
8 70 126.4
9 70 123.3
10 63 112.4
11 80 120.6
12 80 128.8
13 35 109.5
14 35 109.5
15 35 109.5
16 35 120
17 35 109.5
18 35 109.5
19 35 109.5
20 35 109.5
21 35 109.5
22 35 109.5
23 63 112.4
24 33 107.8
25 70 111
26 33 107.8
27 85 120
28 33 107.8
29 70 108.7
30 33 107.8
31 33 107.8
32 35 120
33 70 125.2
34 70 118.6
35 33 107.8
36 70 109.8
37 33 107.8
38 33 107.8
39 80 120.6
40 70 108.7
41 80 120.6
42 63 112.4
43 33 107.8
44 100 109.47

Dihedral Coeffs # opls

1 0 2.1 0 0
2 0 10 0 0
3 0 7 0 0
4 0 4.9 0 0
5 0 0 0 0
6 0 0 0 0
7 0 0 0 0
8 0 4.9 0 0
9 0 0 0 0
10 0 0 0 0
11 0 10 0 0
12 0 4.9 0 0
13 0 7.25 0 0
14 0 0 0 0
15 0 4.9 0 0
16 0 0 0 0
17 0 2.17 0 0
18 0 4.9 0 0
19 0 0 0 0
20 0 6.089 0 0
21 0 10 0 0
22 0 10 0 0
23 0 14 0 0
24 0 0 0 0
25 0 2.17 0 0
26 0 7.25 0 0
27 0 7.25 0 0
28 0 7.25 0 0
29 0 7.25 0 0
30 0 7 0 0
31 0 14 0 0
32 0 10 0 0
33 2.3 6.089 0 0
34 0 4.9 0 0
35 0 0 0 0
36 0 0 0 0
37 0 7.25 0 0
38 0 0 0 0
39 0 2.17 0 0
40 0 4.9 0 0
41 0 2.17 0 0
42 0 7.25 0 0
43 0 4.9 0 0
44 0 0 0 0
45 0 7.25 0 0
46 0 0 0 0
47 0 0 0 0
48 0 7 0 0
49 0 7.25 0 0
50 0 0 0 0
51 0 7 0 0
52 0 0 0 0
53 0 7.25 0 0
54 0 0 0 0

Improper Coeffs # cvff

1 0 -1 2
2 2.5 -1 2
3 0 -1 2
4 2.5 -1 2
5 0 -1 2
6 10.5 -1 2
7 10.5 -1 2
8 0 -1 2
9 0 -1 2
10 2.5 -1 2
11 0 -1 2
12 0 -1 2
13 0 -1 2
14 0 -1 2

Atoms # full

2317 766 25 -0.8476 2.874115078517743 0.12901876147447364 3.7358632988734333 1 0 0
2318 766 26 0.4238 2.186723692934787 0.752257999685568 3.3629477666827428 1 0 0
2319 766 26 0.4238 2.6636388869254333 29.935433325696504 4.694103603474132 1 -1 0
2017 666 25 -0.8476 0.9447023319253449 1.8887799523417084 2.9204387475393663 0 0 0
2076 685 26 0.4238 4.095684185631329 1.5616382714777404 3.3852667192980057 0 0 0
1709 563 26 0.4238 3.9592044922000484 3.0866865149318694 0.6924526587447126 0 0 1
1914 631 26 0.4238 1.2045304051177597 3.8715273673168697 4.717777203799515 0 0 0
2074 685 25 -0.8476 4.453177336293961 2.4940718483385953 3.332671300568929 0 0 0
1912 631 25 -0.8476 0.31052913234552076 3.5171506704384843 4.991964896898226 0 0 0
1913 631 26 0.4238 0.38708312522066946 3.074853797385829 5.885560437787426 0 0 0
219 66 26 0.4238 3.719806337270667 3.9665634587108634 4.044148161225733 1 0 0
217 66 25 -0.8476 2.9899398818234415 4.60960626166874 3.8122194154965574 1 0 0
1708 563 25 -0.8476 3.0275712568846087 3.440524889792793 0.6096399724183423 0 0 1
252 77 26 0.4238 3.026020970726616 4.297172744096793 5.755961925275485 1 0 0
2075 685 26 0.4238 5.452635839923947 2.467270634908574 3.3135817155443856 0 0 0
1354 445 25 -0.8476 2.0546277580787926 0.21210252271511876 6.337058016131036 0 1 0
1356 445 26 0.4238 1.6086736055223123 1.046208053343868 6.661700707395397 0 1 0
1710 563 26 0.4238 2.6098961026404064 3.495071751577334 1.516597588476628 0 0 1
218 66 26 0.4238 3.285838354406407 5.190221487805281 3.0537142592818043 1 0 0
1041 340 26 0.4238 4.950674969323588 1.4501567977352519 0.09106598426554806 0 0 1
1097 359 26 0.4238 9.700797728981458 5.886612308337163 0.5362833354541795 0 0 1
2234 738 26 0.4238 7.4815184098405085 1.4752639007707125 3.3376632983458796 0 1 0
2233 738 25 -0.8476 7.107121509719371 2.3906702657302272 3.18981820975031 0 1 0
2197 726 25 -0.8476 5.72293315477053 2.844907238535728 0.8046810317680075 0 0 1
2199 726 26 0.4238 6.255043290186135 2.6839643650773355 1.6359187944696414 0 0 1
2235 738 26 0.4238 7.611400957937396 3.0509232342655803 3.7463865766626254 0 1 0
704 228 26 0.4238 11.177823170815628 3.1427464910371845 2.4572617156847887 0 1 0
703 228 25 -0.8476 11.876435894772099 2.7691407398493593 3.0674739809271387 0 1 0
919 300 25 -0.8476 8.337660564620851 3.8326067026310473 4.918092652648282 0 0 0
921 300 26 0.4238 9.095123219799627 3.39395900614035 5.401661185593326 0 0 0
2380 787 25 -0.8476 12.003968001850941 6.161044948619335 4.20800402850889 0 0 0
920 300 26 0.4238 7.874901205655511 4.471199583738272 5.5329527302072705 0 0 0
2382 787 26 0.4238 11.020965673169606 6.003174862239102 4.114283906243663 0 0 0
1662 547 26 0.4238 11.211746194750823 1.169212045638806 0.6444867610358007 0 1 1
705 228 26 0.4238 12.31155064863074 1.9806455970536883 2.6327895319528323 0 1 0
2381 787 26 0.4238 12.225724657927328 6.320473485714852 5.169984559329933 0 0 0
2223 734 26 0.4238 9.964456912452338 0.9495595438826234 7.074837930306191 0 0 0
629 203 26 0.4238 11.621474652875337 6.792075511950599 0.25549495924153404 0 1 0
1660 547 25 -0.8476 12.14044089435361 1.0771374771610225 1.0037198959998184 0 1 1
2370 783 26 0.4238 13.684277854642739 5.847487828276673 0.32725694808239986 0 0 0
276 85 26 0.4238 14.178239211790421 3.4882862538833073 0.5299700276830434 0 1 0
274 85 25 -0.8476 14.427189148443606 2.582816536739643 0.8736974558827572 0 1 0
1445 475 26 0.4238 17.331649568144243 2.17172947601173 4.452449407457968 0 0 0
1726 569 25 -0.8476 15.765077969468628 1.9010403445585813 3.2421976746003502 0 1 0
1727 569 26 0.4238 15.553544544733244 2.398516521563714 2.4009063580487444 0 1 0
275 85 26 0.4238 13.609405152867549 2.0096582142754302 0.9258405206109186 0 1 0
2154 711 26 0.4238 12.300097628598392 2.9400968415022235 4.770310543290703 0 1 0
2152 711 25 -0.8476 12.601092265954492 3.0274673083943084 5.719925553232218 0 1 0
170 50 26 0.4238 12.986795890836682 6.627002366546206 2.452174450241165 0 0 0
169 50 25 -0.8476 12.972952930274378 7.062838622644093 1.5522549272764072 0 0 0
2118 699 26 0.4238 19.048602448971724 1.9232120284647205 1.5437726300855636 0 0 1
2117 699 26 0.4238 18.617643601257377 1.3721978700152666 0.06821024030157342 0 0 1
2369 783 26 0.4238 14.93952923522356 5.244409285788494 29.47445758273484 0 0 -1
2368 783 25 -0.8476 13.996981166858394 5.081222949181848 29.765959526919236 0 0 -1
1745 575 26 0.4238 15.688252030128696 1.5745021950253126 29.954557821065144 0 0 0
1308 429 26 0.4238 19.03619364947971 6.601733812474401 4.483555754886918 0 0 0
551 177 26 0.4238 25.24408961760194 5.646018538618478 0.7698446173984044 0 1 0
375 118 26 0.4238 20.397519244640844 5.655289351975791 2.7235673522414054 0 0 1
373 118 25 -0.8476 21.27755808762091 5.512830063905292 2.270536461008558 0 0 1
326 102 26 0.4238 23.26421188629205 1.1144038788606396 4.549539161804673 0 0 0
327 102 26 0.4238 23.617813896763348 0.6948415399746304 6.087576729361475 0 0 0
325 102 25 -0.8476 23.962674368034566 0.7240927851424276 5.149378654039158 0 0 0
1676 552 26 0.4238 22.848441049005075 2.939408929821406 2.08522371218893 0 0 0
649 210 25 -0.8476 21.444588741161795 1.0962652524406837 3.268262367703456 0 1 0
1677 552 26 0.4238 22.042104164514864 4.209647057510484 1.450446239749191 0 0 0
374 118 26 0.4238 21.852571009164976 6.321040408405122 2.3976434501814534 0 0 1
1675 552 25 -0.8476 22.751143526991736 3.5252274696597823 1.2806431683539552 0 0 0
2116 699 25 -0.8476 19.376877122857803 1.4788739339939905 0.710226351735014 0 0 1
650 210 26 0.4238 20.873354711782273 0.6239435121147265 3.939532708350609 0 1 0
103 28 25 -0.8476 19.568793026291686 29.763565941988887 5.121406360200726 0 0 0
86 22 26 0.4238 21.55059608279041 3.225172593668252 4.556862187063982 0 0 1
2019 666 26 0.4238 0.3682838464981632 1.8421742024500676 2.104614231744532 0 0 0
2018 666 26 0.4238 0.5478180642841679 2.5347531285902543 3.572513547024882 0 0 0
1127 369 26 0.4238 27.69355161390973 3.5687583468925594 3.426018437294071 0 0 0
1126 369 25 -0.8476 27.704663330390947 3.6073435950804726 4.425211987220373 0 0 0
1632 537 26 0.4238 27.089510163031633 1.996348961004868 5.428996382638152 0 0 0
1630 537 25 -0.8476 26.602767531564098 1.3005995251415 5.957214479711462 0 0 0
1631 537 26 0.4238 25.696612009583568 1.1542138248543043 5.560410462360641 0 0 0
1128 369 26 0.4238 28.644991138883046 3.7270973630965574 4.7437126741276945 0 0 0
989 323 26 0.4238 27.54798901457424 5.585915552436222 5.336447880422529 0 0 0
368 116 26 0.4238 24.27388048491151 3.819325388107859 0.5308903545533344 0 0 0
843 274 26 0.4238 28.91733664681752 4.416424487869433 29.71145963653445 -1 0 0
965 315 26 0.4238 28.002458593277595 29.96055183250488 5.708341655458455 0 -1 0
1109 363 26 0.4238 26.673928538344473 3.3696883330486798 1.4792106353677554 0 0 1
1108 363 25 -0.8476 27.622968388905257 3.2697534772442087 1.778102569803691 0 0 1
1110 363 26 0.4238 28.015122660250668 2.444294595505073 1.3721066765216303 0 0 1
988 323 25 -0.8476 27.97152334806834 6.052842590657355 6.112719623672843 0 0 0
1417 466 25 -0.8476 28.961588483907093 0.7920011605805235 1.4051870120367052 0 0 0
1419 466 26 0.4238 28.525971985780924 0.6691036772144574 0.5134838799817367 0 0 0
1965 648 26 0.4238 4.711916240988622 6.629435800559601 5.404208320618416 0 0 0
1007 329 26 0.4238 1.763163249208313 7.972387652065709 4.3766216430144125 0 0 0
1006 329 25 -0.8476 2.5474074259181534 8.586524102928086 4.464925102011102 0 0 0
1008 329 26 0.4238 3.350706658727528 8.163776556453191 4.045407606200471 0 0 0
1564 515 25 -0.8476 4.690476351943025 7.545325149410591 3.4863208475147056 0 0 0
1565 515 26 0.4238 4.782057396604437 6.883740568231302 2.742063643801406 0 0 0
1963 648 25 -0.8476 5.046684354905348 6.403921195039382 6.319125521658777 0 0 0
1843 608 25 -0.8476 0.696148328283964 6.672851736327271 1.9171124819321645 0 0 1
1844 608 26 0.4238 1.578259355885265 6.648827177944268 1.4466839959048707 0 0 1
748 243 25 -0.8476 4.903917073071423 5.562994943784994 1.6763336575440737 0 0 1
779 253 26 0.4238 3.6584009871619654 11.098212113373835 3.1982445238920763 1 0 0
2167 716 25 -0.8476 1.6612390585089136 9.788679158513073 1.0105485269627683 0 0 0
2169 716 26 0.4238 2.487817430894205 10.345995724406253 1.0890752780971205 0 0 0
778 253 25 -0.8476 3.0690456169091886 11.179178778975643 4.002050880837647 1 0 0
2002 661 25 -0.8476 4.2415333759302865 11.320899287711544 1.3743436532923938 0 0 0
2004 661 26 0.4238 4.712072119683676 11.058560609337471 0.5318641354800616 0 0 0
2003 661 26 0.4238 4.578828844630893 12.21087082648579 1.6812352225555862 0 0 0
780 253 26 0.4238 2.64866088408955 10.293185586963697 4.197736254751933 1 0 0
749 243 26 0.4238 4.623705869458555 6.094605539444301 0.877039055991322 0 0 1
477 152 26 0.4238 2.5350017100022724 8.302679643127522 0.6731411276943071 1 0 1
475 152 25 -0.8476 3.09094508790226 7.5402930179907734 0.341940848587747 1 0 1
750 243 26 0.4238 5.464719589581971 4.7891161964421265 1.3820340993412021 0 0 1
1096 359 25 -0.8476 8.908249506215391 5.6068181474827 1.078115920186737 0 0 1
976 319 25 -0.8476 9.492321762400342 7.377294220924731 3.3096863174125977 0 0 0
977 319 26 0.4238 9.30658181045939 6.773827184281342 2.534232766480654 0 0 0
978 319 26 0.4238 10.138771385721938 8.08781995706338 3.0317365437520736 0 0 0
759 246 26 0.4238 8.604974448553419 8.734284959957835 4.277622417186562 0 0 0
1566 515 26 0.4238 5.526131796607688 8.090603500354433 3.5522868600625186 0 0 0
1098 359 26 0.4238 8.215540047940477 6.327569914707879 1.052221806275572 0 0 1
757 246 25 -0.8476 8.809013916734042 9.38398194450221 5.009921361337971 0 0 0
758 246 26 0.4238 7.968379388473874 9.850049387598094 5.2858103890303285 0 0 0
243 74 26 0.4238 6.388777785568407 10.069500434612797 2.3952069929992947 0 0 0
312 97 26 0.4238 10.260558875681872 11.943437216731123 0.7758437460342575 0 0 0
242 74 26 0.4238 7.424039945390713 8.876252712600301 1.9816629990746926 0 0 0
241 74 25 -0.8476 6.902578730369848 9.280853848940579 2.73291271213535 0 0 0
310 97 25 -0.8476 9.2835956812356 11.956640585985957 0.9888428437545146 0 0 0
2055 678 26 0.4238 11.007939235898906 12.462486330039155 4.003339518064743 0 0 0
399 126 26 0.4238 7.9174539153796175 12.298105913394126 0.0015988742984973867 0 0 1
2027 669 26 0.4238 8.19248253028822 6.808545033539922 5.911027547181719 0 0 0
311 97 26 0.4238 9.158602684729603 12.08819612350972 1.9722399678682772 0 0 0
1884 621 26 0.4238 6.115199605127531 11.596709239283218 4.913829200736154 0 0 0
1550 510 26 0.4238 9.239269163363902 10.802632731430936 4.166582008787084 0 0 0
171 50 26 0.4238 12.867623595104856 8.051184500003437 1.6621556455289241 0 0 0
1512 497 26 0.4238 11.342776410945866 9.931957444130006 1.7643301784887 0 0 0
2053 678 25 -0.8476 11.820058768880177 12.451954504513314 4.586735578275245 0 0 0
1510 497 25 -0.8476 11.520792915082437 9.268959048496987 2.491477517673408 0 0 0
1511 497 26 0.4238 12.248548076635322 9.61259344551665 3.0850159206808936 0 0 0
2054 678 26 0.4238 12.338712486877109 11.613200960070563 4.420931944988163 0 0 0
2071 684 25 -0.8476 12.751185770132219 9.988379576903288 4.77423766790637 0 0 0
2073 684 26 0.4238 11.916770781521127 9.973467310038084 5.325172580920213 0 0 0
2072 684 26 0.4238 13.44724262186783 9.41620218499192 5.207963281334899 0 0 0
1526 502 26 0.4238 16.761278797174757 9.973388096893899 4.990889829656395 0 0 0
1525 502 25 -0.8476 16.965475899611302 10.553553815372565 4.202403114100572 0 0 0
1245 408 26 0.4238 12.344778099893572 12.395500604395567 0.7734039458656561 0 0 0
641 207 26 0.4238 12.951976779556498 13.226791038913776 3.40168490757721 0 0 0
1878 619 26 0.4238 16.86750266598948 8.46018406369789 1.910494995458072 0 0 0
1527 502 26 0.4238 17.555795845562855 11.308494399689764 4.4880376474401995 0 0 0
2120 700 26 0.4238 16.17131997734154 11.294828446674304 3.0627360821857974 0 0 0
2121 700 26 0.4238 16.096947981372978 11.53404115934283 1.4490841348236374 0 0 0
640 207 25 -0.8476 13.652208097309618 13.533475489722449 2.7569983464119914 0 0 0
2119 700 25 -0.8476 15.791276160539153 11.87139482577247 2.339453304172576 0 0 0
1243 408 25 -0.8476 11.839691358543325 11.592520398489764 0.45700202475158164 0 0 0
1344 441 26 0.4238 15.18428434116721 10.140063837344549 29.293754171207997 0 0 0
2113 698 25 -0.8476 17.031613832485707 11.032160794843486 29.713400650026866 0 0 -1
2114 698 26 0.4238 17.899384285556973 10.654944081724816 0.03694664318312718 0 0 0
550 177 25 -0.8476 25.250808191561383 6.6444026257343145 0.8262724045747613 0 1 0
707 229 26 0.4238 18.305716333561207 7.6539647296881395 0.18246258999582607 0 0 0
1306 429 25 -0.8476 18.93412292914797 7.442812034391157 3.952359932209225 0 0 0
123 34 26 0.4238 23.776048004094545 7.035693633505559 1.6406629290476828 0 0 0
1307 429 26 0.4238 19.70449659687982 8.051818345866838 4.141134207586449 0 0 0
1055 345 26 0.4238 19.124141097546246 9.492715421827517 1.0811491069584342 0 0 0
1054 345 25 -0.8476 19.64465509842876 10.178421832512228 0.5723545369477894 0 0 0
1876 619 25 -0.8476 17.8315857002052 8.310143181714155 1.691333752743645 0 0 0
1877 619 26 0.4238 18.30359735605665 7.94769754342472 2.4949743522827177 0 0 0
230 70 26 0.4238 22.619786095294593 7.229844316343435 5.286473800704166 0 0 0
229 70 25 -0.8476 22.242278566905735 7.775901342660744 4.538603631231183 0 0 0
231 70 26 0.4238 22.7466019593848 7.582383087587179 3.6970523150573076 0 0 0
1056 345 26 0.4238 20.313188453746307 10.60765399399454 1.1796624809990703 0 0 0
350 110 26 0.4238 22.221897211416685 9.360377415068998 4.879286746154337 0 0 0
824 268 26 0.4238 23.398283048449027 11.245494470320702 4.268576450947402 0 0 0
122 34 26 0.4238 22.40935501256755 7.8477958719715755 1.2674783104805705 0 0 0
121 34 25 -0.8476 23.039253547830533 7.605083303938014 2.0052577432006276 0 0 0
825 268 26 0.4238 24.35419687685336 11.155535760520715 2.9476817950533514 0 0 0
823 268 25 -0.8476 23.82711323485009 11.77094863074539 3.5337277364765445 0 0 0
1272 417 26 0.4238 20.858141955801152 9.133661851348696 29.914949276579335 0 0 -1
701 227 26 0.4238 20.053776187705157 11.984655845505328 3.5977865224612864 0 0 1
2322 767 26 0.4238 22.234885973496652 11.608853445293533 2.654330154680002 0 0 1
552 177 26 0.4238 26.02412512466227 7.0026180556907685 0.303144654928555 0 1 0
1845 608 26 0.4238 0.023772654427315132 6.15168605975587 1.3914725849797007 0 0 1
1197 392 26 0.4238 24.666441522841794 9.906232255652537 0.8096873026859729 0 0 1
1196 392 26 0.4238 24.151961344837716 8.832712067336889 1.927493662519669 0 0 1
1195 392 25 -0.8476 24.637767116860633 9.695378664950294 1.7867843022045349 0 0 1
422 134 26 0.4238 26.22423375011532 9.809270204211504 2.629101510878223 0 0 1
990 323 26 0.4238 28.36376567196316 6.920194974933465 5.806376986795861 0 0 0
1926 635 26 0.4238 29.532003636312503 7.527084725374921 3.391568161767376 0 0 0
1925 635 26 0.4238 28.243327790766497 8.4914758685743 3.6670510071946394 0 0 0
1924 635 25 -0.8476 29.007967287281158 8.0087290025797 4.09399588754048 0 0 0
421 134 25 -0.8476 27.19786191640844 9.693158164500788 2.8254843025479337 0 0 1
423 134 26 0.4238 27.671173307389676 10.563707972487325 2.6908760924292983 0 0 1
841 274 25 -0.8476 29.261452690544864 5.35010851528522 29.81054692415438 -1 0 0
842 274 26 0.4238 28.5229951567879 5.99879526709141 29.62646539668284 -1 0 0
1818 599 26 0.4238 26.31909577883693 13.193014564236023 5.592063858124551 0 0 0
1524 501 26 0.4238 27.06617574407764 10.342368252890534 1.0607759011137274 -1 0 1
1769 583 26 0.4238 24.44030454673125 12.860164404098153 -0.006745695063070656 0 0 1
1768 583 25 -0.8476 25.334220913154265 12.845758436202331 0.4412565377063206 0 0 1
1522 501 25 -0.8476 27.182882445402548 10.788206207399273 0.1733030440665868 -1 0 1
1606 529 25 -0.8476 27.461699478513378 7.150266873768955 29.159218163629735 0 0 0
1523 501 26 0.4238 26.783180965257557 11.704290302529422 0.2053761172127159 -1 0 1
2168 716 26 0.4238 1.1067037788410965 9.896805789564114 1.8356541301737057 0 0 0
1800 593 26 0.4238 1.5880899459152997 12.215248961345456 3.9131639157131346 1 0 0
1798 593 25 -0.8476 0.7344818568061453 12.684742232572601 4.1388391447325885 1 0 0
1799 593 26 0.4238 0.05121103568709246 12.490759440332418 3.434913239444481 1 0 0
2362 781 25 -0.8476 1.6378663855932334 15.919536864640122 2.496372506468621 0 0 0
2364 781 26 0.4238 1.7247710810433892 16.54778764081995 1.7232305101152035 0 0 0
721 234 25 -0.8476 2.973785501101312 15.983968439067445 4.964728142895348 0 0 1
1172 384 26 0.4238 3.9072345016461676 15.754374847753018 28.618310188247328 0 0 0
722 234 26 0.4238 2.7120758550174324 15.834716197845381 4.011191642681756 0 0 1
2250 743 26 0.4238 4.858715503891884 14.303604659911262 0.25483475563685604 0 0 0
742 241 25 -0.8476 2.2695688195866976 17.412664269495775 0.031108320607259342 1 0 1
2363 781 26 0.4238 0.6911694842911206 15.91634685996433 2.818482433497642 0 0 0
437 139 26 0.4238 3.0741753142154153 12.873197690099536 5.379100549495656 1 0 1
723 234 26 0.4238 2.939725340465464 15.115639599612026 5.459546249315707 0 0 1
2270 750 26 0.4238 6.746585737549076 13.574745955886097 3.7776471907213636 0 0 0
743 241 26 0.4238 2.9932429309638886 17.871625225388318 0.5465213954408471 1 0 1
2248 743 25 -0.8476 5.4878196685206095 14.337510649527928 1.031415947308903 0 0 0
2249 743 26 0.4238 5.638739377546215 15.289772087341372 1.296786322726873 0 0 0
840 273 26 0.4238 7.283092024821672 17.011854967259524 2.529631238073975 0 0 1
2271 750 26 0.4238 5.760360313826658 13.43785990513406 2.48333342609301 0 0 0
2269 750 25 -0.8476 6.134445033064881 12.961171305056563 3.2788386940208234 0 0 0
1551 510 26 0.4238 8.532160597515418 12.26535628518159 4.0020712651920505 0 0 0
1549 510 25 -0.8476 9.341143858595435 11.720181162003332 3.782230017178687 0 0 0
272 84 26 0.4238 11.064997351013147 15.044180077833161 2.0623517801037217 0 0 0
2273 751 26 0.4238 10.235238406637038 15.237076168534387 4.471348014740148 0 0 1
2272 751 25 -0.8476 9.903517896407736 15.052395719449363 3.546223893954089 0 0 1
2274 751 26 0.4238 9.210373942436535 15.729577169864678 3.2992890922977907 0 0 1
947 309 26 0.4238 12.194555701794386 12.491983778196683 6.233202934203655 0 0 0
817 266 25 -0.8476 5.982840449419229 17.04030169637778 1.3035637822834523 0 0 0
271 84 25 -0.8476 11.778506909576603 15.350273296468387 1.4321049440569424 0 0 0
273 84 26 0.4238 12.651520750805316 14.93684532502565 1.6908019794338929 0 0 0
398 126 26 0.4238 6.866009297256388 13.547468272016319 -0.011981592002193509 0 0 1
397 126 25 -0.8476 7.312080739258491 12.849589431664318 29.427674391002178 0 0 0
1742 574 26 0.4238 11.47452838714712 14.83247355846418 29.74582471460126 0 0 -1
642 207 26 0.4238 14.365230831361146 12.836274664726865 2.6827715108670445 0 0 0
1785 588 26 0.4238 16.918737533127008 15.624264107758382 0.8310258189254887 0 0 0
1783 588 25 -0.8476 16.730787686573724 15.148459046134771 1.6902605976699885 0 0 0
1784 588 26 0.4238 16.451294212928268 14.208103229163827 1.4963164364351964 0 0 0
44 8 26 0.4238 14.056078999508154 15.167146501782334 3.149816655666602 0 0 0
1764 581 26 0.4238 17.77219227742828 14.732192145315247 3.0609528474652583 0 0 0
43 8 25 -0.8476 14.088590145958257 16.137307439384337 3.3900889983831233 0 0 0
1763 581 26 0.4238 18.04610832743114 14.901149791720622 4.6619056320638546 0 0 0
815 265 26 0.4238 13.249114180638374 17.380854984710325 4.448983501043694 0 0 0
814 265 25 -0.8476 12.902945246185384 18.204575005186307 4.898040771144606 0 0 0
816 265 26 0.4238 13.666136161978123 18.71150470447749 5.298742583251265 0 0 0
1762 581 25 -0.8476 18.329245614919994 14.421764261202487 3.8312295190653605 0 0 0
2320 767 25 -0.8476 21.42312499894607 11.660825954065693 2.0726575680487294 0 0 1
2101 694 25 -0.8476 20.639138734685716 14.905664605948736 2.511665354002914 0 0 0
2102 694 26 0.4238 20.58203995080418 15.805912960741225 2.943281664028231 0 0 0
702 227 26 0.4238 19.00723832102671 12.98886936997247 4.348079930656502 0 0 1
2321 767 26 0.4238 21.345279590555617 12.581657842278792 1.6905466779789522 0 0 1
2103 694 26 0.4238 19.90945063455089 14.319963005774477 2.8645235774583635 0 0 0
700 227 25 -0.8476 19.495041601064464 12.118581448586177 4.416248250152128 0 0 1
2109 696 26 0.4238 22.533507936858083 15.463452963862835 3.930165156395599 0 0 0
2107 696 25 -0.8476 23.339693934794003 15.10733354522854 4.4026512376723295 0 0 0
2108 696 26 0.4238 23.123630633470594 14.218560037424357 4.806876796230433 0 0 0
1623 534 26 0.4238 21.998060107154934 18.251768838264837 5.01680167328195 0 0 0
1622 534 26 0.4238 21.851381967104164 18.631407043650263 6.598252545127236 0 0 0
1621 534 25 -0.8476 22.48753376108517 18.568525382806044 5.829255274988895 0 0 0
1944 641 26 0.4238 21.519829092683494 15.423683813984054 0.8443550881982511 0 0 1
1942 641 25 -0.8476 22.06021661179419 15.478242361040412 0.004709501798422838 0 0 1
1943 641 26 0.4238 21.858431521621878 14.687696377276332 29.42650552504836 0 0 0
353 111 26 0.4238 21.577651300014026 12.641218693369046 28.5470462152962 0 0 0
354 111 26 0.4238 20.60235123867266 11.978910214267202 29.676985932863886 0 0 0
352 111 25 -0.8476 20.95189544707006 12.837501137278915 29.301965298379265 0 0 0
1817 599 26 0.4238 26.384587637441836 13.795135813591417 4.075558885726676 0 0 0
1816 599 25 -0.8476 26.878379095259643 13.267013464264132 4.766396649881528 0 0 0
1088 356 26 0.4238 28.346268212257627 14.325615245799213 5.1487792895630715 0 0 0
1087 356 25 -0.8476 29.231751752314025 14.78994687969827 5.1665291674288705 0 0 0
161 47 26 0.4238 24.660817102270826 14.580756980716856 3.2305734492886082 0 0 0
160 47 25 -0.8476 25.575145521538687 14.652764175038525 2.832053022532408 0 0 0
1106 362 26 0.4238 24.690139052884437 17.756965317720812 1.6396847746574044 0 0 0
162 47 26 0.4238 25.695897777056857 15.563577869615846 2.437290651777087 0 0 0
1770 583 26 0.4238 25.247417978960286 13.206065397549228 1.370042925962221 0 0 1
1105 362 25 -0.8476 25.528192747686283 17.43261457046555 2.078390398732907 0 0 0
1107 362 26 0.4238 26.321442458504666 17.7612766840658 1.565812473434213 0 0 0
1176 385 26 0.4238 27.17018449703358 14.00473203717308 0.44590705002331593 -1 0 0
2262 747 26 0.4238 28.488939060287674 12.899927802025786 2.0708643707027456 0 0 1
2260 747 25 -0.8476 28.551089574562226 12.157616854420162 2.7380313720374607 0 0 1
1174 385 25 -0.8476 28.05254124517912 14.29411630505936 0.8169910291401438 -1 0 0
1089 356 26 0.4238 29.911163246441603 14.230278453919995 4.692006989556863 0 0 0
1668 549 26 0.4238 28.117331872451857 17.47014687432575 4.0901693668252985 0 0 0
2261 747 26 0.4238 28.054843629707 12.412859408280747 3.5678453501661593 0 0 1
680 220 26 0.4238 24.61283907776739 18.096218957227393 5.072014452484101 -1 0 1
681 220 26 0.4238 25.453779005693942 17.773924889673623 3.7098202358183214 -1 0 1
679 220 25 -0.8476 25.520479038568634 18.10147229778276 4.652297741655986 -1 0 1
2413 798 25 -0.8476 4.051658618480126 19.25290315797643 1.147293106400992 0 0 0
2414 798 26 0.4238 3.6241480006532814 19.94615232651632 0.5670860131288794 0 0 0
344 108 26 0.4238 4.772918260855159 20.2905098309903 4.747706589641761 0 0 0
2415 798 26 0.4238 4.4816710400872415 19.69574660306165 1.9340453066608476 0 0 0
2251 744 25 -0.8476 5.080568771236008 20.948109352303423 3.0194067718846562 0 0 0
2253 744 26 0.4238 4.184181791073919 21.389591301533706 2.979606144741209 0 0 0
2252 744 26 0.4238 5.792541896467533 21.620449317147347 2.8167907622212818 0 0 0
484 155 25 -0.8476 1.5281035105760203 24.879797280841718 2.4003314518806538 0 -1 0
486 155 26 0.4238 0.6388044721670808 25.107838190539873 2.7967460937299897 0 -1 0
1409 463 26 0.4238 2.154274869498695 23.278673968461614 2.584145328646048 0 0 0
1408 463 25 -0.8476 2.446389692056306 22.358370396683352 2.8443573554556885 0 0 0
1410 463 26 0.4238 2.2823954923245626 22.22031207792169 3.821110048458384 0 0 0
1484 488 26 0.4238 4.982213565680684 22.85339086630894 5.8051571061787275 0 0 0
1205 395 26 0.4238 2.6129863292602424 23.240319422413243 0.5129544145682314 0 0 0
1483 488 25 -0.8476 5.654163876276919 23.430542286988572 5.341067655165577 0 0 0
2329 770 25 -0.8476 2.607029032468152 22.703217330136447 5.595832328824463 0 0 0
2330 770 26 0.4238 2.283332492680157 23.64046945328651 5.466298456932375 0 0 0
1853 611 26 0.4238 5.765608750763397 22.005406719049322 29.71162038434123 0 0 -1
1852 611 25 -0.8476 6.066585221072247 22.886237910319306 0.07706475171453399 0 0 0
839 273 26 0.4238 8.147009911938461 17.437742217577778 3.848301946221943 0 0 1
838 273 25 -0.8476 8.090906638831074 16.80034460900061 3.0798120552798793 0 0 1
819 266 26 0.4238 5.2084945914467395 17.66853690851029 1.379122020056794 0 0 0
2379 786 26 0.4238 7.742594598927445 22.864406663266728 3.267113454700003 0 0 0
1854 611 26 0.4238 6.661843578443235 22.73391770277545 0.866029932463141 0 0 0
2377 786 25 -0.8476 7.779791198097877 22.752740259366355 2.2740640868369515 0 0 0
2395 792 25 -0.8476 9.873042246100866 21.233174480927335 2.13379154860524 0 0 0
2397 792 26 0.4238 10.441466148880503 22.055780642367367 2.1191821325658258 0 0 0
2378 786 26 0.4238 8.551026172872866 22.16336417510506 2.0335801858425655 0 0 0
2396 792 26 0.4238 10.248759850445703 20.580036844039082 2.7912468996174993 0 0 0
2031 670 26 0.4238 9.898881259709746 20.86204809655556 0.05906899563806757 0 0 1
2030 670 26 0.4238 10.411838042163817 19.315677097053335 0.16969709883689532 0 0 1
886 289 25 -0.8476 11.187814306459327 18.09641018651714 1.1243365601704716 0 0 0
888 289 26 0.4238 11.21367938647153 18.069066058057654 2.1236279592009133 0 0 0
280 87 25 -0.8476 11.164774114990843 23.479381701314214 2.0086175093238188 0 0 0
885 288 26 0.4238 8.974245546750145 22.727318230860774 6.038735911623386 0 0 0
39 6 26 0.4238 10.712880262871497 20.457485445817834 5.245223527751804 0 0 0
860 280 26 0.4238 11.596614069843705 22.054626914803965 6.333676757557042 0 0 0
883 288 25 -0.8476 8.264654655235029 23.27713393161992 6.479398453160498 0 0 0
37 6 25 -0.8476 10.85672342046421 20.00830594243432 4.363437288279045 0 0 0
1485 488 26 0.4238 6.532600164637789 23.36606963883056 5.814557861973613 0 0 0
859 280 25 -0.8476 10.884589631894789 21.407968084567138 6.607270544123358 0 0 0
2022 667 26 0.4238 11.690520628368628 23.462479289278583 3.747502637329874 0 0 0
282 87 26 0.4238 11.969155575177474 23.39432424814423 1.4206245103913107 0 0 0
887 289 26 0.4238 11.608647473484071 17.266888001968226 0.7571957181332007 0 0 0
45 8 26 0.4238 15.026494538087103 16.390792260863442 3.6269028515192248 0 0 0
38 6 26 0.4238 11.43843699690588 19.204764674674266 4.489654461550106 0 0 0
2020 667 25 -0.8476 12.022938560743867 23.358077971993396 4.684838596221605 0 0 0
1083 354 26 0.4238 16.787289032256563 21.083743016441503 3.641998816094668 0 0 0
1776 585 26 0.4238 14.698474948575752 21.230258394244032 2.9664977813905384 0 0 0
1774 585 25 -0.8476 15.499261634236952 21.21155532592765 2.3678401805093676 0 0 0
1775 585 26 0.4238 15.27999726895329 20.70565457094694 1.53358147280522 0 0 0
2209 730 25 -0.8476 13.147703312999727 23.364717233854797 0.27926299358062806 0 0 1
826 269 25 -0.8476 15.03091756594 19.795754648275175 0.02946143494430458 0 0 0
857 279 26 0.4238 15.541928397757871 22.96923899531035 2.229748634654525 0 0 0
2334 771 26 0.4238 16.722641666500554 20.048977155233423 29.797273930876266 0 0 0
2390 790 26 0.4238 13.13832201720731 22.069951307103313 4.456895602124642 0 0 0