LAMMPS data file: caffeine (LigParGen OPLS-AA) + 800 SPC/E waters

    2424 atoms
    1625 bonds
     843 angles
      54 dihedrals
      14 impropers

      26 atom types
      26 bond types
      44 angle types
      54 dihedral types
      14 improper types
 -0.000500 29.999500  xlo xhi
 0.023501 30.023501  ylo yhi
 -0.026000 29.974000  zlo zhi

Masses

     1    12.011000
     2    14.007000
     3    12.011000
     4    14.007000
     5    12.011000
     6    12.011000
     7    12.011000
     8    14.007000
     9    12.011000
    10    12.011000
    11    14.007000
    12    12.011000
    13    15.999000
    14    15.999000
    15     1.008000
    16     1.008000
    17     1.008000
    18     1.008000
    19     1.008000
    20     1.008000
    21     1.008000
    22     1.008000
    23     1.008000
    24     1.008000
    25    15.999400
    26     1.007940

Pair Coeffs

     1     0.0660   3.500000
     2     0.1700   3.250000
     3     0.0700   3.550000
     4     0.1700   3.250000
     5     0.0700   3.550000
     6     0.0800   3.500000
     7     0.0700   3.550000
     8     0.1700   3.250000
     9     0.0660   3.500000
    10     0.0700   3.550000
    11     0.1700   3.250000
    12     0.0660   3.500000
    13     0.2100   2.960000
    14     0.2100   2.960000
    15     0.0300   2.500000
    16     0.0300   2.500000
    17     0.0300   2.500000
    18     0.0300   2.420000
    19     0.0300   2.500000
    20     0.0300   2.500000
    21     0.0300   2.500000
    22     0.0300   2.500000
    23     0.0300   2.500000
    24     0.0300   2.500000
    25     0.1553   3.166000
    26     0.0000   0.000000

Bond Coeffs

     1   337.0000     1.4750
     2   477.0000     1.3430
     3   488.0000     1.3350
     4   410.0000     1.3940
     5   436.0000     1.3740
     6   447.0000     1.4190
     7   418.0000     1.3880
     8   337.0000     1.4750
     9   418.0000     1.3880
    10   427.0000     1.3810
    11   337.0000     1.4750
    12   570.0000     1.2290
    13   570.0000     1.2290
    14   340.0000     1.0900
    15   340.0000     1.0900
    16   340.0000     1.0900
    17   367.0000     1.0800
    18   340.0000     1.0900
    19   340.0000     1.0900
    20   340.0000     1.0900
    21   340.0000     1.0900
    22   340.0000     1.0900
    23   340.0000     1.0900
    24   469.0000     1.4040
    25   418.0000     1.3880
    26   553.0000     1.0000

Angle Coeffs

     1     63.000    112.400
     2     70.000    120.000
     3     70.000    110.000
     4     70.000    125.800
     5     77.270    119.730
     6     70.000    111.300
     7     63.000    112.400
     8     70.000    126.400
     9     70.000    123.300
    10     63.000    112.400
    11     80.000    120.600
    12     80.000    128.800
    13     35.000    109.500
    14     35.000    109.500
    15     35.000    109.500
    16     35.000    120.000
    17     35.000    109.500
    18     35.000    109.500
    19     35.000    109.500
    20     35.000    109.500
    21     35.000    109.500
    22     35.000    109.500
    23     63.000    112.400
    24     33.000    107.800
    25     70.000    111.000
    26     33.000    107.800
    27     85.000    120.000
    28     33.000    107.800
    29     70.000    108.700
    30     33.000    107.800
    31     33.000    107.800
    32     35.000    120.000
    33     70.000    125.200
    34     70.000    118.600
    35     33.000    107.800
    36     70.000    109.800
    37     33.000    107.800
    38     33.000    107.800
    39     80.000    120.600
    40     70.000    108.700
    41     80.000    120.600
    42     63.000    112.400
    43     33.000    107.800
    44    100.000    109.470

Dihedral Coeffs

     1      0.000      2.100      0.000      0.000
     2      0.000     10.000      0.000      0.000
     3      0.000      7.000      0.000      0.000
     4      0.000      4.900      0.000      0.000
     5      0.000      0.000      0.000      0.000
     6      0.000      0.000      0.000      0.000
     7      0.000      0.000      0.000      0.000
     8      0.000      4.900      0.000      0.000
     9      0.000      0.000      0.000      0.000
    10      0.000      0.000      0.000      0.000
    11      0.000     10.000      0.000      0.000
    12      0.000      4.900      0.000      0.000
    13      0.000      7.250      0.000      0.000
    14      0.000      0.000      0.000      0.000
    15      0.000      4.900      0.000      0.000
    16      0.000      0.000      0.000      0.000
    17      0.000      2.170      0.000      0.000
    18      0.000      4.900      0.000      0.000
    19      0.000      0.000      0.000      0.000
    20      0.000      6.089      0.000      0.000
    21      0.000     10.000      0.000      0.000
    22      0.000     10.000      0.000      0.000
    23      0.000     14.000      0.000      0.000
    24      0.000      0.000      0.000      0.000
    25      0.000      2.170      0.000      0.000
    26      0.000      7.250      0.000      0.000
    27      0.000      7.250      0.000      0.000
    28      0.000      7.250      0.000      0.000
    29      0.000      7.250      0.000      0.000
    30      0.000      7.000      0.000      0.000
    31      0.000     14.000      0.000      0.000
    32      0.000     10.000      0.000      0.000
    33      2.300      6.089      0.000      0.000
    34      0.000      4.900      0.000      0.000
    35      0.000      0.000      0.000      0.000
    36      0.000      0.000      0.000      0.000
    37      0.000      7.250      0.000      0.000
    38      0.000      0.000      0.000      0.000
    39      0.000      2.170      0.000      0.000
    40      0.000      4.900      0.000      0.000
    41      0.000      2.170      0.000      0.000
    42      0.000      7.250      0.000      0.000
    43      0.000      4.900      0.000      0.000
    44      0.000      0.000      0.000      0.000
    45      0.000      7.250      0.000      0.000
    46      0.000      0.000      0.000      0.000
    47      0.000      0.000      0.000      0.000
    48      0.000      7.000      0.000      0.000
    49      0.000      7.250      0.000      0.000
    50      0.000      0.000      0.000      0.000
    51      0.000      7.000      0.000      0.000
    52      0.000      0.000      0.000      0.000
    53      0.000      7.250      0.000      0.000
    54      0.000      0.000      0.000      0.000

Improper Coeffs

     1     0.0000   -1    2
     2     2.5000   -1    2
     3     0.0000   -1    2
     4     2.5000   -1    2
     5     0.0000   -1    2
     6    10.5000   -1    2
     7    10.5000   -1    2
     8     0.0000   -1    2
     9     0.0000   -1    2
    10     2.5000   -1    2
    11     0.0000   -1    2
    12     0.0000   -1    2
    13     0.0000   -1    2
    14     0.0000   -1    2

Atoms # full

1 1 1 -0.10410000 20.132999 14.675000 15.000000 # C UNL
2 1 2 -0.05670000 19.721001 13.410000 15.000000 # N UNL
3 1 3 0.09720000 20.502001 12.337000 15.000000 # C UNL
4 1 4 -0.48030000 19.721001 11.264000 15.000000 # N UNL
5 1 5 0.28820000 18.461000 11.671000 15.000000 # C UNL
6 1 6 -0.24040000 18.461000 13.003000 15.000000 # C UNL
7 1 7 0.52880000 17.305000 13.669000 15.000000 # C UNL
8 1 8 -0.52650000 16.155001 13.003000 15.000000 # N UNL
9 1 9 -0.01670000 15.000000 13.669000 15.000000 # C UNL
10 1 10 0.62380000 16.155001 11.671000 15.000000 # C UNL
11 1 11 -0.40540000 17.305000 11.006000 15.000000 # N UNL
12 1 12 -0.02700000 17.305000 9.674000 15.000000 # C UNL
13 1 13 -0.50590000 15.000000 11.006000 15.000000 # O UNL
14 1 14 -0.52560000 17.305000 15.000000 15.000000 # O UNL
15 1 15 0.12410000 21.202999 14.702000 15.000000 # H UNL
16 1 16 0.12410000 19.764000 15.171000 14.126000 # H UNL
17 1 17 0.12410000 19.764000 15.171000 15.874000 # H UNL
18 1 18 0.25300000 21.572001 12.337000 15.000000 # H UNL
19 1 19 0.12400000 15.195000 14.721000 15.000000 # H UNL
20 1 20 0.12400000 14.439000 13.410000 14.126000 # H UNL
21 1 21 0.12400000 14.439000 13.410000 15.874000 # H UNL
22 1 22 0.11770000 18.313999 9.318000 15.000000 # H UNL
23 1 23 0.11770000 16.801001 9.318000 15.874000 # H UNL
24 1 24 0.11770000 16.801001 9.318000 14.126000 # H UNL
25 2 25 -0.84760000 17.049000 15.427000 18.929001 # O HOH
26 2 26 0.42380000 16.707001 15.947000 19.648001 # H HOH
27 2 26 0.42380000 16.327000 15.105000 18.402000 # H HOH
28 3 25 -0.84760000 28.496000 10.303000 8.935000 # O HOH
29 3 26 0.42380000 27.847000 10.843000 9.372000 # H HOH
30 3 26 0.42380000 28.181999 10.071000 8.068000 # H HOH
31 4 25 -0.84760000 9.240000 7.403000 20.080000 # O HOH
32 4 26 0.42380000 8.350000 7.438000 19.746000 # H HOH
33 4 26 0.42380000 9.436000 6.518000 20.364000 # H HOH
34 5 25 -0.84760000 19.965000 23.754000 13.041000 # O HOH
35 5 26 0.42380000 20.275000 23.937000 12.161000 # H HOH
36 5 26 0.42380000 19.034000 23.934000 13.091000 # H HOH
37 6 25 -0.84760000 11.104000 19.379999 2.881000 # O HOH
38 6 26 0.42380000 10.864000 20.289000 2.739000 # H HOH
39 6 26 0.42380000 10.814000 18.858000 2.142000 # H HOH
40 7 25 -0.84760000 25.605000 11.699000 19.052000 # O HOH
41 7 26 0.42380000 26.025000 12.380000 19.566000 # H HOH
42 7 26 0.42380000 26.084000 11.575000 18.240999 # H HOH
43 8 25 -0.84760000 13.754000 21.909000 8.171000 # O HOH
44 8 26 0.42380000 14.352000 21.847000 8.907000 # H HOH
45 8 26 0.42380000 14.071000 21.364000 7.460000 # H HOH
46 9 25 -0.84760000 5.203000 28.796000 26.475000 # O HOH
47 9 26 0.42380000 5.496000 29.346001 27.191999 # H HOH
48 9 26 0.42380000 5.831000 28.096001 26.337000 # H HOH
49 10 25 -0.84760000 20.124001 18.427000 20.996000 # O HOH
50 10 26 0.42380000 19.853001 19.191000 21.492001 # H HOH
51 10 26 0.42380000 21.073000 18.372999 20.993000 # H HOH
52 11 25 -0.84760000 21.582001 21.613001 6.805000 # O HOH
53 11 26 0.42380000 21.238001 20.740000 6.656000 # H HOH
54 11 26 0.42380000 20.886000 22.250000 6.694000 # H HOH
55 12 25 -0.84760000 14.256000 7.142000 21.615000 # O HOH
56 12 26 0.42380000 14.013000 6.391000 22.145000 # H HOH
57 12 26 0.42380000 15.046000 7.535000 21.968000 # H HOH
58 13 25 -0.84760000 11.671000 20.190001 26.440001 # O HOH
59 13 26 0.42380000 11.830000 19.424000 26.979000 # H HOH
60 13 26 0.42380000 12.234000 20.162001 25.676001 # H HOH
61 14 25 -0.84760000 24.037001 21.197001 17.669001 # O HOH
62 14 26 0.42380000 23.840000 22.009001 18.122999 # H HOH
63 14 26 0.42380000 23.281000 20.927999 17.160999 # H HOH
64 15 25 -0.84760000 14.378000 29.856001 26.733000 # O HOH
65 15 26 0.42380000 14.075000 29.122999 26.209000 # H HOH
66 15 26 0.42380000 13.775000 30.000000 27.452999 # H HOH
67 16 25 -0.84760000 17.292999 9.027000 28.559999 # O HOH
68 16 26 0.42380000 17.948999 8.391000 28.823000 # H HOH
69 16 26 0.42380000 16.915001 8.765000 27.729000 # H HOH
70 17 25 -0.84760000 4.577000 3.809000 23.343000 # O HOH
71 17 26 0.42380000 3.828000 3.570000 22.809000 # H HOH
72 17 26 0.42380000 4.837000 4.701000 23.142000 # H HOH
73 18 25 -0.84760000 19.948000 5.546000 11.405000 # O HOH
74 18 26 0.42380000 20.712999 5.346000 10.878000 # H HOH
75 18 26 0.42380000 19.680000 4.769000 11.881000 # H HOH
76 19 25 -0.84760000 15.380000 25.041000 14.356000 # O HOH
77 19 26 0.42380000 16.296000 25.146000 14.124000 # H HOH
78 19 26 0.42380000 15.006000 24.327999 13.851000 # H HOH
79 20 25 -0.84760000 4.691000 5.635000 12.236000 # O HOH
80 20 26 0.42380000 5.640000 5.659000 12.183000 # H HOH
81 20 26 0.42380000 4.324000 5.676000 11.361000 # H HOH
82 21 25 -0.84760000 12.946000 24.636999 18.937000 # O HOH
83 21 26 0.42380000 13.885000 24.496000 18.893999 # H HOH
84 21 26 0.42380000 12.760000 25.562000 18.820999 # H HOH
85 22 25 -0.84760000 24.284000 10.945000 27.146000 # O HOH
86 22 26 0.42380000 23.865999 10.376000 26.510000 # H HOH
87 22 26 0.42380000 23.677999 11.126000 27.855000 # H HOH
88 23 25 -0.84760000 0.870000 2.256000 1.848000 # O HOH
89 23 26 0.42380000 1.056000 3.116000 1.488000 # H HOH
90 23 26 0.42380000 1.437000 1.613000 1.439000 # H HOH
91 24 25 -0.84760000 21.760000 22.452999 28.496000 # O HOH
92 24 26 0.42380000 21.291000 22.097000 29.242001 # H HOH
93 24 26 0.42380000 22.652000 22.125000 28.497999 # H HOH
94 25 25 -0.84760000 11.089000 13.097000 15.697000 # O HOH
95 25 26 0.42380000 10.459000 13.757000 15.966000 # H HOH
96 25 26 0.42380000 10.666000 12.475000 15.117000 # H HOH
97 26 25 -0.84760000 11.738000 23.048000 7.918000 # O HOH
98 26 26 0.42380000 10.934000 23.146000 7.422000 # H HOH
99 26 26 0.42380000 11.751000 23.679001 8.627000 # H HOH
100 27 25 -0.84760000 22.340000 20.076000 10.753000 # O HOH
101 27 26 0.42380000 22.267000 19.864000 11.677000 # H HOH
102 27 26 0.42380000 22.857000 19.410000 10.316000 # H HOH
103 28 25 -0.84760000 14.764000 25.920000 4.325000 # O HOH
104 28 26 0.42380000 15.277000 25.551001 5.035000 # H HOH
105 28 26 0.42380000 15.077000 25.575001 3.496000 # H HOH
106 29 25 -0.84760000 15.794000 12.742000 27.107000 # O HOH
107 29 26 0.42380000 16.551001 12.732000 27.683001 # H HOH
108 29 26 0.42380000 15.699000 13.607000 26.726999 # H HOH
109 30 25 -0.84760000 8.324000 18.872999 14.955000 # O HOH
110 30 26 0.42380000 8.496000 19.618000 15.520000 # H HOH
111 30 26 0.42380000 7.695000 19.122000 14.288000 # H HOH
112 31 25 -0.84760000 3.058000 23.719999 27.971001 # O HOH
113 31 26 0.42380000 2.472000 24.459999 27.861000 # H HOH
114 31 26 0.42380000 3.811000 23.987000 28.485001 # H HOH
115 32 25 -0.84760000 0.262000 13.377000 9.687000 # O HOH
116 32 26 0.42380000 1.076000 13.515000 9.216000 # H HOH
117 32 26 0.42380000 0.426000 12.837000 10.451000 # H HOH
118 33 25 -0.84760000 24.737000 5.219000 24.257000 # O HOH
119 33 26 0.42380000 25.281000 5.998000 24.284000 # H HOH
120 33 26 0.42380000 25.268999 4.469000 24.021000 # H HOH
121 34 25 -0.84760000 22.612000 5.603000 2.110000 # O HOH
122 34 26 0.42380000 22.173000 5.089000 1.442000 # H HOH
123 34 26 0.42380000 22.870001 5.036000 2.827000 # H HOH
124 35 25 -0.84760000 10.615000 10.341000 20.684999 # O HOH
125 35 26 0.42380000 11.112000 11.022000 20.247000 # H HOH
126 35 26 0.42380000 10.688000 9.531000 20.195000 # H HOH
127 36 25 -0.84760000 1.211000 9.853000 11.231000 # O HOH
128 36 26 0.42380000 1.133000 9.242000 11.955000 # H HOH
129 36 26 0.42380000 1.748000 10.590000 11.496000 # H HOH
130 37 25 -0.84760000 9.733000 3.119000 19.851000 # O HOH
131 37 26 0.42380000 8.906000 3.499000 20.122999 # H HOH
132 37 26 0.42380000 9.571000 2.430000 19.218000 # H HOH
133 38 25 -0.84760000 14.004000 24.135000 6.112000 # O HOH
134 38 26 0.42380000 13.234000 24.174999 6.667000 # H HOH
135 38 26 0.42380000 13.790000 23.677000 5.307000 # H HOH
136 39 25 -0.84760000 19.872000 9.801000 24.533001 # O HOH
137 39 26 0.42380000 19.233999 9.103000 24.628000 # H HOH
138 39 26 0.42380000 19.420000 10.632000 24.438000 # H HOH
139 40 25 -0.84760000 12.586000 21.662001 23.617001 # O HOH
140 40 26 0.42380000 11.747000 21.261999 23.416000 # H HOH
141 40 26 0.42380000 13.235000 21.368000 22.989000 # H HOH
142 41 25 -0.84760000 16.954000 5.581000 28.195999 # O HOH
143 41 26 0.42380000 17.153000 4.927000 28.856001 # H HOH
144 41 26 0.42380000 17.735001 5.763000 27.686001 # H HOH
145 42 25 -0.84760000 28.013000 24.059999 4.698000 # O HOH
146 42 26 0.42380000 27.952000 23.122999 4.552000 # H HOH
147 42 26 0.42380000 27.277000 24.348000 5.225000 # H HOH
148 43 25 -0.84760000 11.889000 15.896000 25.370001 # O HOH
149 43 26 0.42380000 12.244000 15.965000 26.249001 # H HOH
150 43 26 0.42380000 11.836000 16.761000 24.981001 # H HOH
151 44 25 -0.84760000 14.440000 23.649000 24.547001 # O HOH
152 44 26 0.42380000 15.251000 24.128000 24.672001 # H HOH
153 44 26 0.42380000 14.432000 23.261999 23.679001 # H HOH
154 45 25 -0.84760000 24.539000 29.065001 14.309000 # O HOH
155 45 26 0.42380000 24.655001 29.656000 15.045000 # H HOH
156 45 26 0.42380000 25.103001 28.309000 14.419000 # H HOH
157 46 25 -0.84760000 10.681000 21.160000 12.009000 # O HOH
158 46 26 0.42380000 9.938000 21.146999 12.602000 # H HOH
159 46 26 0.42380000 11.363000 20.591000 12.346000 # H HOH
160 47 25 -0.84760000 19.570000 3.783000 5.161000 # O HOH
161 47 26 0.42380000 20.344000 4.140000 4.741000 # H HOH
162 47 26 0.42380000 19.802000 3.450000 6.020000 # H HOH
163 48 25 -0.84760000 1.829000 21.372999 16.920000 # O HOH
164 48 26 0.42380000 1.125000 21.927999 17.237000 # H HOH
165 48 26 0.42380000 2.203000 21.754999 16.135000 # H HOH
166 49 25 -0.84760000 16.833000 15.712000 28.313999 # O HOH
167 49 26 0.42380000 15.958000 15.983000 28.061001 # H HOH
168 49 26 0.42380000 17.066999 14.920000 27.844000 # H HOH
169 50 25 -0.84760000 12.521000 3.818000 3.154000 # O HOH
170 50 26 0.42380000 13.331000 3.694000 2.673000 # H HOH
171 50 26 0.42380000 12.487000 3.205000 3.879000 # H HOH
172 51 25 -0.84760000 16.608999 1.438000 13.131000 # O HOH
173 51 26 0.42380000 16.922001 2.283000 13.433000 # H HOH
174 51 26 0.42380000 17.004000 0.750000 13.653000 # H HOH
175 52 25 -0.84760000 8.916000 19.486000 26.093000 # O HOH
176 52 26 0.42380000 9.444000 20.028999 25.517000 # H HOH
177 52 26 0.42380000 9.476000 19.080000 26.743999 # H HOH
178 53 25 -0.84760000 4.392000 15.590000 4.206000 # O HOH
179 53 26 0.42380000 4.172000 14.737000 4.563000 # H HOH
180 53 26 0.42380000 3.678000 16.195000 4.369000 # H HOH
181 54 25 -0.84760000 16.391001 0.313000 20.163000 # O HOH
182 54 26 0.42380000 15.851000 0.000000 20.879999 # H HOH
183 54 26 0.42380000 15.840000 0.727000 19.510000 # H HOH
184 55 25 -0.84760000 12.003000 16.591000 5.685000 # O HOH
185 55 26 0.42380000 11.405000 17.257000 5.365000 # H HOH
186 55 26 0.42380000 12.038000 16.627001 6.634000 # H HOH
187 56 25 -0.84760000 17.448000 29.209999 22.332001 # O HOH
188 56 26 0.42380000 16.958000 29.993000 22.555000 # H HOH
189 56 26 0.42380000 17.839001 28.846001 23.117001 # H HOH
190 57 25 -0.84760000 17.313000 18.958000 0.342000 # O HOH
191 57 26 0.42380000 16.605000 18.459000 -0.050000 # H HOH
192 57 26 0.42380000 16.972000 19.483999 1.056000 # H HOH
193 58 25 -0.84760000 0.848000 1.522000 24.322001 # O HOH
194 58 26 0.42380000 0.780000 1.928000 23.465000 # H HOH
195 58 26 0.42380000 0.514000 0.634000 24.278000 # H HOH
196 59 25 -0.84760000 12.821000 15.132000 22.951000 # O HOH
197 59 26 0.42380000 13.271000 15.541000 22.221001 # H HOH
198 59 26 0.42380000 13.088000 14.222000 23.017000 # H HOH
199 60 25 -0.84760000 4.210000 8.837000 1.632000 # O HOH
200 60 26 0.42380000 4.373000 8.796000 0.696000 # H HOH
201 60 26 0.42380000 4.691000 9.565000 2.005000 # H HOH
202 61 25 -0.84760000 26.715000 16.396000 10.703000 # O HOH
203 61 26 0.42380000 27.447001 15.900000 10.354000 # H HOH
204 61 26 0.42380000 26.165001 15.823000 11.224000 # H HOH
205 62 25 -0.84760000 17.587000 17.914000 3.794000 # O HOH
206 62 26 0.42380000 18.202999 18.443001 4.288000 # H HOH
207 62 26 0.42380000 17.209000 18.438000 3.098000 # H HOH
208 63 25 -0.84760000 13.934000 28.362000 7.945000 # O HOH
209 63 26 0.42380000 14.050000 28.774000 7.096000 # H HOH
210 63 26 0.42380000 14.783000 28.226999 8.349000 # H HOH
211 64 25 -0.84760000 15.398000 23.068001 27.926001 # O HOH
212 64 26 0.42380000 16.289000 22.740999 27.964001 # H HOH
213 64 26 0.42380000 14.952000 22.686001 27.179001 # H HOH
214 65 25 -0.84760000 22.709000 22.138000 14.893000 # O HOH
215 65 26 0.42380000 22.146000 21.514000 15.338000 # H HOH
216 65 26 0.42380000 22.355000 23.013000 14.996000 # H HOH
217 66 25 -0.84760000 27.684999 13.198000 3.628000 # O HOH
218 66 26 0.42380000 28.462000 13.322000 3.093000 # H HOH
219 66 26 0.42380000 27.848000 12.516000 4.268000 # H HOH
220 67 25 -0.84760000 23.899000 3.291000 18.202000 # O HOH
221 67 26 0.42380000 23.115999 3.597000 17.757999 # H HOH
222 67 26 0.42380000 24.187000 3.949000 18.823999 # H HOH
223 68 25 -0.84760000 27.802000 12.745000 0.025000 # O HOH
224 68 26 0.42380000 27.087999 13.366000 0.115000 # H HOH
225 68 26 0.42380000 27.534000 11.903000 0.374000 # H HOH
226 69 25 -0.84760000 3.007000 20.169001 29.965000 # O HOH
227 69 26 0.42380000 2.964000 21.118000 29.997999 # H HOH
228 69 26 0.42380000 3.916000 19.895000 29.934000 # H HOH
229 70 25 -0.84760000 19.245001 5.842000 5.912000 # O HOH
230 70 26 0.42380000 19.698000 6.533000 5.442000 # H HOH
231 70 26 0.42380000 19.763000 5.579000 6.664000 # H HOH
232 71 25 -0.84760000 14.650000 25.982000 25.784000 # O HOH
233 71 26 0.42380000 15.509000 26.216999 26.115000 # H HOH
234 71 26 0.42380000 14.419000 26.558001 25.065001 # H HOH
235 72 25 -0.84760000 7.414000 18.433001 24.877001 # O HOH
236 72 26 0.42380000 6.653000 18.611000 25.417000 # H HOH
237 72 26 0.42380000 7.707000 17.542000 25.028000 # H HOH
238 73 25 -0.84760000 8.005000 10.875000 14.214000 # O HOH
239 73 26 0.42380000 8.355000 10.793000 13.334000 # H HOH
240 73 26 0.42380000 8.719000 10.993000 14.829000 # H HOH
241 74 25 -0.84760000 6.734000 7.818000 2.990000 # O HOH
242 74 26 0.42380000 5.998000 8.082000 3.531000 # H HOH
243 74 26 0.42380000 7.445000 7.523000 3.546000 # H HOH
244 75 25 -0.84760000 1.585000 29.888000 18.415001 # O HOH
245 75 26 0.42380000 0.786000 29.386999 18.535000 # H HOH
246 75 26 0.42380000 2.294000 29.299999 18.183001 # H HOH
247 76 25 -0.84760000 15.563000 21.489000 0.781000 # O HOH
248 76 26 0.42380000 16.372999 21.577000 1.272000 # H HOH
249 76 26 0.42380000 15.572000 22.091999 0.047000 # H HOH
250 77 25 -0.84760000 29.166000 10.759000 4.331000 # O HOH
251 77 26 0.42380000 28.301001 10.365000 4.322000 # H HOH
252 77 26 0.42380000 29.408001 11.011000 3.448000 # H HOH
253 78 25 -0.84760000 18.653000 26.483999 23.827000 # O HOH
254 78 26 0.42380000 19.214001 27.232000 23.658001 # H HOH
255 78 26 0.42380000 17.747999 26.723000 23.660999 # H HOH
256 79 25 -0.84760000 2.234000 17.603001 19.572001 # O HOH
257 79 26 0.42380000 2.652000 17.961000 20.346001 # H HOH
258 79 26 0.42380000 1.480000 18.134001 19.344999 # H HOH
259 80 25 -0.84760000 16.521000 1.114000 10.596000 # O HOH
260 80 26 0.42380000 15.645000 0.881000 10.310000 # H HOH
261 80 26 0.42380000 16.504000 1.974000 10.999000 # H HOH
262 81 25 -0.84760000 26.875999 28.666000 24.944000 # O HOH
263 81 26 0.42380000 27.399000 28.042000 25.434999 # H HOH
264 81 26 0.42380000 27.375999 28.981001 24.200001 # H HOH
265 82 25 -0.84760000 23.722000 5.414000 11.725000 # O HOH
266 82 26 0.42380000 22.778999 5.326000 11.639000 # H HOH
267 82 26 0.42380000 24.150000 4.872000 11.073000 # H HOH
268 83 25 -0.84760000 12.889000 27.697001 14.385000 # O HOH
269 83 26 0.42380000 11.948000 27.833000 14.355000 # H HOH
270 83 26 0.42380000 13.139000 27.077999 13.710000 # H HOH
271 84 25 -0.84760000 12.752000 15.194000 4.179000 # O HOH
272 84 26 0.42380000 13.625000 14.853000 4.021000 # H HOH
273 84 26 0.42380000 12.142000 14.471000 4.270000 # H HOH
274 85 25 -0.84760000 11.040000 28.232000 1.383000 # O HOH
275 85 26 0.42380000 11.200000 29.068001 0.959000 # H HOH
276 85 26 0.42380000 11.698000 28.086000 2.052000 # H HOH
277 86 25 -0.84760000 19.733000 6.917000 13.118000 # O HOH
278 86 26 0.42380000 19.533001 7.633000 13.711000 # H HOH
279 86 26 0.42380000 20.575001 6.541000 13.348000 # H HOH
280 87 25 -0.84760000 20.726999 23.159000 4.696000 # O HOH
281 87 26 0.42380000 19.952999 23.072001 4.151000 # H HOH
282 87 26 0.42380000 21.500999 22.974001 4.178000 # H HOH
283 88 25 -0.84760000 9.682000 25.222000 11.593000 # O HOH
284 88 26 0.42380000 10.439000 24.750999 11.924000 # H HOH
285 88 26 0.42380000 9.219000 24.676001 10.969000 # H HOH
286 89 25 -0.84760000 28.294001 16.004000 15.949000 # O HOH
287 89 26 0.42380000 29.117001 15.566000 15.765000 # H HOH
288 89 26 0.42380000 28.083000 15.908000 16.870001 # H HOH
289 90 25 -0.84760000 8.304000 6.288000 13.457000 # O HOH
290 90 26 0.42380000 7.679000 6.979000 13.267000 # H HOH
291 90 26 0.42380000 8.481000 5.795000 12.664000 # H HOH
292 91 25 -0.84760000 5.009000 23.597000 0.900000 # O HOH
293 91 26 0.42380000 5.283000 24.405001 1.319000 # H HOH
294 91 26 0.42380000 4.758000 23.775999 0.001000 # H HOH
295 92 25 -0.84760000 16.679001 14.254000 4.278000 # O HOH
296 92 26 0.42380000 16.268999 14.365000 5.129000 # H HOH
297 92 26 0.42380000 17.478001 14.765000 4.244000 # H HOH
298 93 25 -0.84760000 1.649000 11.000000 14.862000 # O HOH
299 93 26 0.42380000 2.325000 11.108000 15.523000 # H HOH
300 93 26 0.42380000 1.603000 11.784000 14.328000 # H HOH
301 94 25 -0.84760000 14.963000 4.015000 28.209000 # O HOH
302 94 26 0.42380000 14.951000 4.437000 29.059999 # H HOH
303 94 26 0.42380000 14.129000 4.152000 27.775999 # H HOH
304 95 25 -0.84760000 2.074000 24.763000 24.179001 # O HOH
305 95 26 0.42380000 1.618000 24.030001 24.577999 # H HOH
306 95 26 0.42380000 1.975000 24.719999 23.235001 # H HOH
307 96 25 -0.84760000 28.941000 22.687000 7.952000 # O HOH
308 96 26 0.42380000 29.575001 22.042000 7.659000 # H HOH
309 96 26 0.42380000 28.412001 22.316999 8.649000 # H HOH
310 97 25 -0.84760000 15.553000 13.482000 2.003000 # O HOH
311 97 26 0.42380000 15.262000 14.154000 2.609000 # H HOH
312 97 26 0.42380000 14.906000 13.375000 1.316000 # H HOH
313 98 25 -0.84760000 29.907000 29.020000 20.153000 # O HOH
314 98 26 0.42380000 30.000000 28.441000 20.900000 # H HOH
315 98 26 0.42380000 29.987000 29.922001 20.441000 # H HOH
316 99 25 -0.84760000 23.004000 6.733000 29.499001 # O HOH
317 99 26 0.42380000 22.226999 7.161000 29.155001 # H HOH
318 99 26 0.42380000 23.513000 7.358000 30.000999 # H HOH
319 100 25 -0.84760000 5.639000 11.665000 26.615999 # O HOH
320 100 26 0.42380000 6.332000 12.082000 26.117001 # H HOH
321 100 26 0.42380000 5.896000 10.777000 26.834000 # H HOH
322 101 25 -0.84760000 0.597000 1.237000 11.770000 # O HOH
323 101 26 0.42380000 1.303000 0.720000 11.399000 # H HOH
324 101 26 0.42380000 0.213000 0.769000 12.502000 # H HOH
325 102 25 -0.84760000 21.952999 1.631000 5.792000 # O HOH
326 102 26 0.42380000 21.670000 1.653000 6.699000 # H HOH
327 102 26 0.42380000 21.711000 2.445000 5.366000 # H HOH
328 103 25 -0.84760000 17.955999 13.349000 20.386999 # O HOH
329 103 26 0.42380000 17.420000 13.709000 21.084000 # H HOH
330 103 26 0.42380000 17.898001 12.401000 20.400000 # H HOH
331 104 25 -0.84760000 21.004000 15.470000 19.846001 # O HOH
332 104 26 0.42380000 21.365999 14.952000 19.136000 # H HOH
333 104 26 0.42380000 20.535000 16.215000 19.487000 # H HOH
334 105 25 -0.84760000 18.313999 24.275999 10.155000 # O HOH
335 105 26 0.42380000 17.851999 24.969000 9.697000 # H HOH
336 105 26 0.42380000 18.445000 24.530001 11.061000 # H HOH
337 106 25 -0.84760000 2.159000 8.302000 23.539000 # O HOH
338 106 26 0.42380000 2.530000 9.015000 24.046000 # H HOH
339 106 26 0.42380000 1.614000 8.657000 22.846001 # H HOH
340 107 25 -0.84760000 1.702000 10.618000 8.973000 # O HOH
341 107 26 0.42380000 0.913000 10.095000 8.889000 # H HOH
342 107 26 0.42380000 1.852000 11.095000 8.165000 # H HOH
343 108 25 -0.84760000 0.629000 17.261000 6.419000 # O HOH
344 108 26 0.42380000 0.361000 16.365000 6.588000 # H HOH
345 108 26 0.42380000 0.000000 17.857000 6.809000 # H HOH
346 109 25 -0.84760000 4.115000 20.044001 -0.009000 # O HOH
347 109 26 0.42380000 4.146000 20.968000 0.213000 # H HOH
348 109 26 0.42380000 4.714000 19.563999 0.551000 # H HOH
349 110 25 -0.84760000 19.513000 6.858000 9.188000 # O HOH
350 110 26 0.42380000 19.313000 6.013000 8.803000 # H HOH
351 110 26 0.42380000 18.739000 7.408000 9.164000 # H HOH
352 111 25 -0.84760000 19.172001 9.980000 27.608000 # O HOH
353 111 26 0.42380000 19.184000 10.930000 27.587999 # H HOH
354 111 26 0.42380000 19.434999 9.643000 26.760000 # H HOH
355 112 25 -0.84760000 3.539000 23.094999 24.000000 # O HOH
356 112 26 0.42380000 3.994000 23.360001 23.209000 # H HOH
357 112 26 0.42380000 3.582000 22.150000 24.087999 # H HOH
358 113 25 -0.84760000 20.399000 17.756001 29.584999 # O HOH
359 113 26 0.42380000 20.882999 17.132999 29.054001 # H HOH
360 113 26 0.42380000 19.667000 17.313999 30.000000 # H HOH
361 114 25 -0.84760000 4.340000 16.146999 8.162000 # O HOH
362 114 26 0.42380000 4.321000 15.638000 8.965000 # H HOH
363 114 26 0.42380000 5.061000 16.764000 8.196000 # H HOH
364 115 25 -0.84760000 24.870001 29.231001 29.410999 # O HOH
365 115 26 0.42380000 25.375000 28.666000 29.986000 # H HOH
366 115 26 0.42380000 24.518000 28.718000 28.693001 # H HOH
367 116 25 -0.84760000 25.961000 5.275000 0.439000 # O HOH
368 116 26 0.42380000 26.528999 5.817000 0.975000 # H HOH
369 116 26 0.42380000 25.209999 5.000000 0.953000 # H HOH
370 117 25 -0.84760000 16.785999 4.043000 18.813999 # O HOH
371 117 26 0.42380000 17.593000 4.544000 18.770000 # H HOH
372 117 26 0.42380000 16.400999 3.989000 17.948000 # H HOH
373 118 25 -0.84760000 24.863001 7.308000 27.417999 # O HOH
374 118 26 0.42380000 25.157000 8.211000 27.471001 # H HOH
375 118 26 0.42380000 24.830000 6.935000 28.291000 # H HOH
376 119 25 -0.84760000 27.413000 12.049000 21.812000 # O HOH
377 119 26 0.42380000 27.215000 11.407000 21.139999 # H HOH
378 119 26 0.42380000 26.690001 12.660000 21.889000 # H HOH
379 120 25 -0.84760000 18.992001 4.982000 20.410000 # O HOH
380 120 26 0.42380000 19.267000 5.552000 21.118999 # H HOH
381 120 26 0.42380000 19.736000 4.793000 19.849001 # H HOH
382 121 25 -0.84760000 22.430000 21.419001 8.976000 # O HOH
383 121 26 0.42380000 23.013000 20.985001 8.363000 # H HOH
384 121 26 0.42380000 21.565001 21.030001 8.918000 # H HOH
385 122 25 -0.84760000 2.395000 0.699000 8.073000 # O HOH
386 122 26 0.42380000 2.614000 0.003000 8.682000 # H HOH
387 122 26 0.42380000 3.194000 1.109000 7.762000 # H HOH
388 123 25 -0.84760000 12.210000 22.007999 20.687000 # O HOH
389 123 26 0.42380000 11.567000 22.686001 20.507000 # H HOH
390 123 26 0.42380000 11.797000 21.301001 21.167999 # H HOH
391 124 25 -0.84760000 25.514000 21.917000 7.627000 # O HOH
392 124 26 0.42380000 26.122999 22.409000 8.166000 # H HOH
393 124 26 0.42380000 25.587999 22.202999 6.724000 # H HOH
394 125 25 -0.84760000 17.281000 24.610001 27.003000 # O HOH
395 125 26 0.42380000 16.792999 24.438999 26.205000 # H HOH
396 125 26 0.42380000 18.186001 24.349001 26.882000 # H HOH