LAMMPS data file. CGCMM style. atom_style full generated by VMD/TopoTools v1.8 on Tue Mar 17 14:36:26 -0300 2026
 2424 atoms
 1625 bonds
 843 angles
 54 dihedrals
 0 impropers
 4 atom types
 1 bond types
 9 angle types
 8 dihedral types
 0 improper types
 -0.000500 29.999500  xlo xhi
 0.023501 30.023501  ylo yhi
 -0.026000 29.974000  zlo zhi

# Pair Coeffs
#
# 1  C
# 2  H
# 3  N
# 4  O

# Bond Coeffs
#
# 1  

# Angle Coeffs
#
# 1  C-C-C
# 2  C-C-N
# 3  C-C-O
# 4  C-N-C
# 5  H-C-H
# 6  H-C-N
# 7  H-O-H
# 8  N-C-N
# 9  N-C-O

# Dihedral Coeffs
#
# 1  C-C-C-N
# 2  C-C-C-O
# 3  C-C-N-C
# 4  H-C-N-C
# 5  N-C-C-N
# 6  N-C-C-O
# 7  N-C-N-C
# 8  O-C-N-C

 Masses

 1 12.010700 # C
 2 1.007940 # H
 3 14.006700 # N
 4 15.999400 # O

 Atoms # full

1 1 1 0.000000 20.132999 14.675000 15.000000 # C UNL
2 1 3 0.000000 19.721001 13.410000 15.000000 # N UNL
3 1 1 0.000000 20.502001 12.337000 15.000000 # C UNL
4 1 3 0.000000 19.721001 11.264000 15.000000 # N UNL
5 1 1 0.000000 18.461000 11.671000 15.000000 # C UNL
6 1 1 0.000000 18.461000 13.003000 15.000000 # C UNL
7 1 1 0.000000 17.305000 13.669000 15.000000 # C UNL
8 1 3 0.000000 16.155001 13.003000 15.000000 # N UNL
9 1 1 0.000000 15.000000 13.669000 15.000000 # C UNL
10 1 1 0.000000 16.155001 11.671000 15.000000 # C UNL
11 1 3 0.000000 17.305000 11.006000 15.000000 # N UNL
12 1 1 0.000000 17.305000 9.674000 15.000000 # C UNL
13 1 4 0.000000 15.000000 11.006000 15.000000 # O UNL
14 1 4 0.000000 17.305000 15.000000 15.000000 # O UNL
15 1 2 0.000000 21.202999 14.702000 15.000000 # H UNL
16 1 2 0.000000 19.764000 15.171000 14.126000 # H UNL
17 1 2 0.000000 19.764000 15.171000 15.874000 # H UNL
18 1 2 0.000000 21.572001 12.337000 15.000000 # H UNL
19 1 2 0.000000 15.195000 14.721000 15.000000 # H UNL
20 1 2 0.000000 14.439000 13.410000 14.126000 # H UNL
21 1 2 0.000000 14.439000 13.410000 15.874000 # H UNL
22 1 2 0.000000 18.313999 9.318000 15.000000 # H UNL
23 1 2 0.000000 16.801001 9.318000 15.874000 # H UNL
24 1 2 0.000000 16.801001 9.318000 14.126000 # H UNL
25 1 4 0.000000 17.049000 15.427000 18.929001 # O HOH
26 2 2 0.000000 16.707001 15.947000 19.648001 # H HOH
27 2 2 0.000000 16.327000 15.105000 18.402000 # H HOH
28 1 4 0.000000 28.496000 10.303000 8.935000 # O HOH
29 2 2 0.000000 27.847000 10.843000 9.372000 # H HOH
30 2 2 0.000000 28.181999 10.071000 8.068000 # H HOH
31 1 4 0.000000 9.240000 7.403000 20.080000 # O HOH
32 2 2 0.000000 8.350000 7.438000 19.746000 # H HOH
33 2 2 0.000000 9.436000 6.518000 20.364000 # H HOH
34 1 4 0.000000 19.965000 23.754000 13.041000 # O HOH
35 2 2 0.000000 20.275000 23.937000 12.161000 # H HOH
36 2 2 0.000000 19.034000 23.934000 13.091000 # H HOH
37 1 4 0.000000 11.104000 19.379999 2.881000 # O HOH
38 2 2 0.000000 10.864000 20.289000 2.739000 # H HOH
39 2 2 0.000000 10.814000 18.858000 2.142000 # H HOH
40 1 4 0.000000 25.605000 11.699000 19.052000 # O HOH
41 2 2 0.000000 26.025000 12.380000 19.566000 # H HOH
42 2 2 0.000000 26.084000 11.575000 18.240999 # H HOH
43 1 4 0.000000 13.754000 21.909000 8.171000 # O HOH
44 2 2 0.000000 14.352000 21.847000 8.907000 # H HOH
45 2 2 0.000000 14.071000 21.364000 7.460000 # H HOH
46 1 4 0.000000 5.203000 28.796000 26.475000 # O HOH
47 2 2 0.000000 5.496000 29.346001 27.191999 # H HOH
48 2 2 0.000000 5.831000 28.096001 26.337000 # H HOH
49 1 4 0.000000 20.124001 18.427000 20.996000 # O HOH
50 2 2 0.000000 19.853001 19.191000 21.492001 # H HOH
51 2 2 0.000000 21.073000 18.372999 20.993000 # H HOH
52 1 4 0.000000 21.582001 21.613001 6.805000 # O HOH
53 2 2 0.000000 21.238001 20.740000 6.656000 # H HOH
54 2 2 0.000000 20.886000 22.250000 6.694000 # H HOH
55 1 4 0.000000 14.256000 7.142000 21.615000 # O HOH
56 2 2 0.000000 14.013000 6.391000 22.145000 # H HOH
57 2 2 0.000000 15.046000 7.535000 21.968000 # H HOH
58 1 4 0.000000 11.671000 20.190001 26.440001 # O HOH
59 2 2 0.000000 11.830000 19.424000 26.979000 # H HOH
60 2 2 0.000000 12.234000 20.162001 25.676001 # H HOH
61 1 4 0.000000 24.037001 21.197001 17.669001 # O HOH
62 2 2 0.000000 23.840000 22.009001 18.122999 # H HOH
63 2 2 0.000000 23.281000 20.927999 17.160999 # H HOH
64 1 4 0.000000 14.378000 29.856001 26.733000 # O HOH
65 2 2 0.000000 14.075000 29.122999 26.209000 # H HOH
66 2 2 0.000000 13.775000 30.000000 27.452999 # H HOH
67 1 4 0.000000 17.292999 9.027000 28.559999 # O HOH
68 2 2 0.000000 17.948999 8.391000 28.823000 # H HOH
69 2 2 0.000000 16.915001 8.765000 27.729000 # H HOH
70 1 4 0.000000 4.577000 3.809000 23.343000 # O HOH
71 2 2 0.000000 3.828000 3.570000 22.809000 # H HOH
72 2 2 0.000000 4.837000 4.701000 23.142000 # H HOH
73 1 4 0.000000 19.948000 5.546000 11.405000 # O HOH
74 2 2 0.000000 20.712999 5.346000 10.878000 # H HOH
75 2 2 0.000000 19.680000 4.769000 11.881000 # H HOH
76 1 4 0.000000 15.380000 25.041000 14.356000 # O HOH
77 2 2 0.000000 16.296000 25.146000 14.124000 # H HOH
78 2 2 0.000000 15.006000 24.327999 13.851000 # H HOH
79 1 4 0.000000 4.691000 5.635000 12.236000 # O HOH
80 2 2 0.000000 5.640000 5.659000 12.183000 # H HOH
81 2 2 0.000000 4.324000 5.676000 11.361000 # H HOH
82 1 4 0.000000 12.946000 24.636999 18.937000 # O HOH
83 2 2 0.000000 13.885000 24.496000 18.893999 # H HOH
84 2 2 0.000000 12.760000 25.562000 18.820999 # H HOH
85 1 4 0.000000 24.284000 10.945000 27.146000 # O HOH
86 2 2 0.000000 23.865999 10.376000 26.510000 # H HOH
87 2 2 0.000000 23.677999 11.126000 27.855000 # H HOH
88 1 4 0.000000 0.870000 2.256000 1.848000 # O HOH
89 2 2 0.000000 1.056000 3.116000 1.488000 # H HOH
90 2 2 0.000000 1.437000 1.613000 1.439000 # H HOH
91 1 4 0.000000 21.760000 22.452999 28.496000 # O HOH
92 2 2 0.000000 21.291000 22.097000 29.242001 # H HOH
93 2 2 0.000000 22.652000 22.125000 28.497999 # H HOH
94 1 4 0.000000 11.089000 13.097000 15.697000 # O HOH
95 2 2 0.000000 10.459000 13.757000 15.966000 # H HOH
96 2 2 0.000000 10.666000 12.475000 15.117000 # H HOH
97 1 4 0.000000 11.738000 23.048000 7.918000 # O HOH
98 2 2 0.000000 10.934000 23.146000 7.422000 # H HOH
99 2 2 0.000000 11.751000 23.679001 8.627000 # H HOH
100 1 4 0.000000 22.340000 20.076000 10.753000 # O HOH
101 2 2 0.000000 22.267000 19.864000 11.677000 # H HOH
102 2 2 0.000000 22.857000 19.410000 10.316000 # H HOH
103 1 4 0.000000 14.764000 25.920000 4.325000 # O HOH
104 2 2 0.000000 15.277000 25.551001 5.035000 # H HOH
105 2 2 0.000000 15.077000 25.575001 3.496000 # H HOH
106 1 4 0.000000 15.794000 12.742000 27.107000 # O HOH
107 2 2 0.000000 16.551001 12.732000 27.683001 # H HOH
108 2 2 0.000000 15.699000 13.607000 26.726999 # H HOH
109 1 4 0.000000 8.324000 18.872999 14.955000 # O HOH
110 2 2 0.000000 8.496000 19.618000 15.520000 # H HOH
111 2 2 0.000000 7.695000 19.122000 14.288000 # H HOH
112 1 4 0.000000 3.058000 23.719999 27.971001 # O HOH
113 2 2 0.000000 2.472000 24.459999 27.861000 # H HOH
114 2 2 0.000000 3.811000 23.987000 28.485001 # H HOH
115 1 4 0.000000 0.262000 13.377000 9.687000 # O HOH
116 2 2 0.000000 1.076000 13.515000 9.216000 # H HOH
117 2 2 0.000000 0.426000 12.837000 10.451000 # H HOH
118 1 4 0.000000 24.737000 5.219000 24.257000 # O HOH
119 2 2 0.000000 25.281000 5.998000 24.284000 # H HOH
120 2 2 0.000000 25.268999 4.469000 24.021000 # H HOH
121 1 4 0.000000 22.612000 5.603000 2.110000 # O HOH
122 2 2 0.000000 22.173000 5.089000 1.442000 # H HOH
123 2 2 0.000000 22.870001 5.036000 2.827000 # H HOH
124 1 4 0.000000 10.615000 10.341000 20.684999 # O HOH
125 2 2 0.000000 11.112000 11.022000 20.247000 # H HOH
126 2 2 0.000000 10.688000 9.531000 20.195000 # H HOH
127 1 4 0.000000 1.211000 9.853000 11.231000 # O HOH
128 2 2 0.000000 1.133000 9.242000 11.955000 # H HOH
129 2 2 0.000000 1.748000 10.590000 11.496000 # H HOH
130 1 4 0.000000 9.733000 3.119000 19.851000 # O HOH
131 2 2 0.000000 8.906000 3.499000 20.122999 # H HOH
132 2 2 0.000000 9.571000 2.430000 19.218000 # H HOH
133 1 4 0.000000 14.004000 24.135000 6.112000 # O HOH
134 2 2 0.000000 13.234000 24.174999 6.667000 # H HOH
135 2 2 0.000000 13.790000 23.677000 5.307000 # H HOH
136 1 4 0.000000 19.872000 9.801000 24.533001 # O HOH
137 2 2 0.000000 19.233999 9.103000 24.628000 # H HOH
138 2 2 0.000000 19.420000 10.632000 24.438000 # H HOH
139 1 4 0.000000 12.586000 21.662001 23.617001 # O HOH
140 2 2 0.000000 11.747000 21.261999 23.416000 # H HOH
141 2 2 0.000000 13.235000 21.368000 22.989000 # H HOH
142 1 4 0.000000 16.954000 5.581000 28.195999 # O HOH
143 2 2 0.000000 17.153000 4.927000 28.856001 # H HOH
144 2 2 0.000000 17.735001 5.763000 27.686001 # H HOH
145 1 4 0.000000 28.013000 24.059999 4.698000 # O HOH
146 2 2 0.000000 27.952000 23.122999 4.552000 # H HOH
147 2 2 0.000000 27.277000 24.348000 5.225000 # H HOH
148 1 4 0.000000 11.889000 15.896000 25.370001 # O HOH
149 2 2 0.000000 12.244000 15.965000 26.249001 # H HOH
150 2 2 0.000000 11.836000 16.761000 24.981001 # H HOH
151 1 4 0.000000 14.440000 23.649000 24.547001 # O HOH
152 2 2 0.000000 15.251000 24.128000 24.672001 # H HOH
153 2 2 0.000000 14.432000 23.261999 23.679001 # H HOH
154 1 4 0.000000 24.539000 29.065001 14.309000 # O HOH
155 2 2 0.000000 24.655001 29.656000 15.045000 # H HOH
156 2 2 0.000000 25.103001 28.309000 14.419000 # H HOH
157 1 4 0.000000 10.681000 21.160000 12.009000 # O HOH
158 2 2 0.000000 9.938000 21.146999 12.602000 # H HOH
159 2 2 0.000000 11.363000 20.591000 12.346000 # H HOH
160 1 4 0.000000 19.570000 3.783000 5.161000 # O HOH
161 2 2 0.000000 20.344000 4.140000 4.741000 # H HOH
162 2 2 0.000000 19.802000 3.450000 6.020000 # H HOH
163 1 4 0.000000 1.829000 21.372999 16.920000 # O HOH
164 2 2 0.000000 1.125000 21.927999 17.237000 # H HOH
165 2 2 0.000000 2.203000 21.754999 16.135000 # H HOH
166 1 4 0.000000 16.833000 15.712000 28.313999 # O HOH
167 2 2 0.000000 15.958000 15.983000 28.061001 # H HOH
168 2 2 0.000000 17.066999 14.920000 27.844000 # H HOH
169 1 4 0.000000 12.521000 3.818000 3.154000 # O HOH
170 2 2 0.000000 13.331000 3.694000 2.673000 # H HOH
171 2 2 0.000000 12.487000 3.205000 3.879000 # H HOH
172 1 4 0.000000 16.608999 1.438000 13.131000 # O HOH
173 2 2 0.000000 16.922001 2.283000 13.433000 # H HOH
174 2 2 0.000000 17.004000 0.750000 13.653000 # H HOH
175 1 4 0.000000 8.916000 19.486000 26.093000 # O HOH
176 2 2 0.000000 9.444000 20.028999 25.517000 # H HOH
177 2 2 0.000000 9.476000 19.080000 26.743999 # H HOH
178 1 4 0.000000 4.392000 15.590000 4.206000 # O HOH
179 2 2 0.000000 4.172000 14.737000 4.563000 # H HOH
180 2 2 0.000000 3.678000 16.195000 4.369000 # H HOH
181 1 4 0.000000 16.391001 0.313000 20.163000 # O HOH
182 2 2 0.000000 15.851000 0.000000 20.879999 # H HOH
183 2 2 0.000000 15.840000 0.727000 19.510000 # H HOH
184 1 4 0.000000 12.003000 16.591000 5.685000 # O HOH
185 2 2 0.000000 11.405000 17.257000 5.365000 # H HOH
186 2 2 0.000000 12.038000 16.627001 6.634000 # H HOH
187 1 4 0.000000 17.448000 29.209999 22.332001 # O HOH
188 2 2 0.000000 16.958000 29.993000 22.555000 # H HOH
189 2 2 0.000000 17.839001 28.846001 23.117001 # H HOH
190 1 4 0.000000 17.313000 18.958000 0.342000 # O HOH
191 2 2 0.000000 16.605000 18.459000 -0.050000 # H HOH
192 2 2 0.000000 16.972000 19.483999 1.056000 # H HOH
193 1 4 0.000000 0.848000 1.522000 24.322001 # O HOH
194 2 2 0.000000 0.780000 1.928000 23.465000 # H HOH
195 2 2 0.000000 0.514000 0.634000 24.278000 # H HOH
196 1 4 0.000000 12.821000 15.132000 22.951000 # O HOH
197 2 2 0.000000 13.271000 15.541000 22.221001 # H HOH
198 2 2 0.000000 13.088000 14.222000 23.017000 # H HOH
199 1 4 0.000000 4.210000 8.837000 1.632000 # O HOH
200 2 2 0.000000 4.373000 8.796000 0.696000 # H HOH
201 2 2 0.000000 4.691000 9.565000 2.005000 # H HOH
202 1 4 0.000000 26.715000 16.396000 10.703000 # O HOH
203 2 2 0.000000 27.447001 15.900000 10.354000 # H HOH
204 2 2 0.000000 26.165001 15.823000 11.224000 # H HOH
205 1 4 0.000000 17.587000 17.914000 3.794000 # O HOH
206 2 2 0.000000 18.202999 18.443001 4.288000 # H HOH
207 2 2 0.000000 17.209000 18.438000 3.098000 # H HOH
208 1 4 0.000000 13.934000 28.362000 7.945000 # O HOH
209 2 2 0.000000 14.050000 28.774000 7.096000 # H HOH
210 2 2 0.000000 14.783000 28.226999 8.349000 # H HOH
211 1 4 0.000000 15.398000 23.068001 27.926001 # O HOH
212 2 2 0.000000 16.289000 22.740999 27.964001 # H HOH
213 2 2 0.000000 14.952000 22.686001 27.179001 # H HOH
214 1 4 0.000000 22.709000 22.138000 14.893000 # O HOH
215 2 2 0.000000 22.146000 21.514000 15.338000 # H HOH
216 2 2 0.000000 22.355000 23.013000 14.996000 # H HOH
217 1 4 0.000000 27.684999 13.198000 3.628000 # O HOH
218 2 2 0.000000 28.462000 13.322000 3.093000 # H HOH
219 2 2 0.000000 27.848000 12.516000 4.268000 # H HOH
220 1 4 0.000000 23.899000 3.291000 18.202000 # O HOH
221 2 2 0.000000 23.115999 3.597000 17.757999 # H HOH
222 2 2 0.000000 24.187000 3.949000 18.823999 # H HOH
223 1 4 0.000000 27.802000 12.745000 0.025000 # O HOH
224 2 2 0.000000 27.087999 13.366000 0.115000 # H HOH
225 2 2 0.000000 27.534000 11.903000 0.374000 # H HOH
226 1 4 0.000000 3.007000 20.169001 29.965000 # O HOH
227 2 2 0.000000 2.964000 21.118000 29.997999 # H HOH
228 2 2 0.000000 3.916000 19.895000 29.934000 # H HOH
229 1 4 0.000000 19.245001 5.842000 5.912000 # O HOH
230 2 2 0.000000 19.698000 6.533000 5.442000 # H HOH
231 2 2 0.000000 19.763000 5.579000 6.664000 # H HOH
232 1 4 0.000000 14.650000 25.982000 25.784000 # O HOH
233 2 2 0.000000 15.509000 26.216999 26.115000 # H HOH
234 2 2 0.000000 14.419000 26.558001 25.065001 # H HOH
235 1 4 0.000000 7.414000 18.433001 24.877001 # O HOH
236 2 2 0.000000 6.653000 18.611000 25.417000 # H HOH
237 2 2 0.000000 7.707000 17.542000 25.028000 # H HOH
238 1 4 0.000000 8.005000 10.875000 14.214000 # O HOH
239 2 2 0.000000 8.355000 10.793000 13.334000 # H HOH
240 2 2 0.000000 8.719000 10.993000 14.829000 # H HOH
241 1 4 0.000000 6.734000 7.818000 2.990000 # O HOH
242 2 2 0.000000 5.998000 8.082000 3.531000 # H HOH
243 2 2 0.000000 7.445000 7.523000 3.546000 # H HOH
244 1 4 0.000000 1.585000 29.888000 18.415001 # O HOH
245 2 2 0.000000 0.786000 29.386999 18.535000 # H HOH
246 2 2 0.000000 2.294000 29.299999 18.183001 # H HOH
247 1 4 0.000000 15.563000 21.489000 0.781000 # O HOH
248 2 2 0.000000 16.372999 21.577000 1.272000 # H HOH
249 2 2 0.000000 15.572000 22.091999 0.047000 # H HOH
250 1 4 0.000000 29.166000 10.759000 4.331000 # O HOH
251 2 2 0.000000 28.301001 10.365000 4.322000 # H HOH
252 2 2 0.000000 29.408001 11.011000 3.448000 # H HOH
253 1 4 0.000000 18.653000 26.483999 23.827000 # O HOH
254 2 2 0.000000 19.214001 27.232000 23.658001 # H HOH
255 2 2 0.000000 17.747999 26.723000 23.660999 # H HOH
256 1 4 0.000000 2.234000 17.603001 19.572001 # O HOH
257 2 2 0.000000 2.652000 17.961000 20.346001 # H HOH
258 2 2 0.000000 1.480000 18.134001 19.344999 # H HOH
259 1 4 0.000000 16.521000 1.114000 10.596000 # O HOH
260 2 2 0.000000 15.645000 0.881000 10.310000 # H HOH
261 2 2 0.000000 16.504000 1.974000 10.999000 # H HOH
262 1 4 0.000000 26.875999 28.666000 24.944000 # O HOH
263 2 2 0.000000 27.399000 28.042000 25.434999 # H HOH
264 2 2 0.000000 27.375999 28.981001 24.200001 # H HOH
265 1 4 0.000000 23.722000 5.414000 11.725000 # O HOH
266 2 2 0.000000 22.778999 5.326000 11.639000 # H HOH
267 2 2 0.000000 24.150000 4.872000 11.073000 # H HOH
268 1 4 0.000000 12.889000 27.697001 14.385000 # O HOH
269 2 2 0.000000 11.948000 27.833000 14.355000 # H HOH
270 2 2 0.000000 13.139000 27.077999 13.710000 # H HOH
271 1 4 0.000000 12.752000 15.194000 4.179000 # O HOH
272 2 2 0.000000 13.625000 14.853000 4.021000 # H HOH
273 2 2 0.000000 12.142000 14.471000 4.270000 # H HOH
274 1 4 0.000000 11.040000 28.232000 1.383000 # O HOH
275 2 2 0.000000 11.200000 29.068001 0.959000 # H HOH
276 2 2 0.000000 11.698000 28.086000 2.052000 # H HOH
277 1 4 0.000000 19.733000 6.917000 13.118000 # O HOH
278 2 2 0.000000 19.533001 7.633000 13.711000 # H HOH
279 2 2 0.000000 20.575001 6.541000 13.348000 # H HOH
280 1 4 0.000000 20.726999 23.159000 4.696000 # O HOH
281 2 2 0.000000 19.952999 23.072001 4.151000 # H HOH
282 2 2 0.000000 21.500999 22.974001 4.178000 # H HOH
283 1 4 0.000000 9.682000 25.222000 11.593000 # O HOH
284 2 2 0.000000 10.439000 24.750999 11.924000 # H HOH
285 2 2 0.000000 9.219000 24.676001 10.969000 # H HOH
286 1 4 0.000000 28.294001 16.004000 15.949000 # O HOH
287 2 2 0.000000 29.117001 15.566000 15.765000 # H HOH
288 2 2 0.000000 28.083000 15.908000 16.870001 # H HOH
289 1 4 0.000000 8.304000 6.288000 13.457000 # O HOH
290 2 2 0.000000 7.679000 6.979000 13.267000 # H HOH
291 2 2 0.000000 8.481000 5.795000 12.664000 # H HOH
292 1 4 0.000000 5.009000 23.597000 0.900000 # O HOH
293 2 2 0.000000 5.283000 24.405001 1.319000 # H HOH
294 2 2 0.000000 4.758000 23.775999 0.001000 # H HOH
295 1 4 0.000000 16.679001 14.254000 4.278000 # O HOH
296 2 2 0.000000 16.268999 14.365000 5.129000 # H HOH
297 2 2 0.000000 17.478001 14.765000 4.244000 # H HOH
298 1 4 0.000000 1.649000 11.000000 14.862000 # O HOH
299 2 2 0.000000 2.325000 11.108000 15.523000 # H HOH
300 2 2 0.000000 1.603000 11.784000 14.328000 # H HOH
301 1 4 0.000000 14.963000 4.015000 28.209000 # O HOH
302 2 2 0.000000 14.951000 4.437000 29.059999 # H HOH
303 2 2 0.000000 14.129000 4.152000 27.775999 # H HOH
304 1 4 0.000000 2.074000 24.763000 24.179001 # O HOH
305 2 2 0.000000 1.618000 24.030001 24.577999 # H HOH
306 2 2 0.000000 1.975000 24.719999 23.235001 # H HOH
307 1 4 0.000000 28.941000 22.687000 7.952000 # O HOH
308 2 2 0.000000 29.575001 22.042000 7.659000 # H HOH
309 2 2 0.000000 28.412001 22.316999 8.649000 # H HOH
310 1 4 0.000000 15.553000 13.482000 2.003000 # O HOH
311 2 2 0.000000 15.262000 14.154000 2.609000 # H HOH
312 2 2 0.000000 14.906000 13.375000 1.316000 # H HOH
313 1 4 0.000000 29.907000 29.020000 20.153000 # O HOH
314 2 2 0.000000 30.000000 28.441000 20.900000 # H HOH
315 2 2 0.000000 29.987000 29.922001 20.441000 # H HOH
316 1 4 0.000000 23.004000 6.733000 29.499001 # O HOH
317 2 2 0.000000 22.226999 7.161000 29.155001 # H HOH
318 2 2 0.000000 23.513000 7.358000 30.000999 # H HOH
319 1 4 0.000000 5.639000 11.665000 26.615999 # O HOH
320 2 2 0.000000 6.332000 12.082000 26.117001 # H HOH
321 2 2 0.000000 5.896000 10.777000 26.834000 # H HOH
322 1 4 0.000000 0.597000 1.237000 11.770000 # O HOH
323 2 2 0.000000 1.303000 0.720000 11.399000 # H HOH
324 2 2 0.000000 0.213000 0.769000 12.502000 # H HOH
325 1 4 0.000000 21.952999 1.631000 5.792000 # O HOH
326 2 2 0.000000 21.670000 1.653000 6.699000 # H HOH
327 2 2 0.000000 21.711000 2.445000 5.366000 # H HOH
328 1 4 0.000000 17.955999 13.349000 20.386999 # O HOH
329 2 2 0.000000 17.420000 13.709000 21.084000 # H HOH
330 2 2 0.000000 17.898001 12.401000 20.400000 # H HOH
331 1 4 0.000000 21.004000 15.470000 19.846001 # O HOH
332 2 2 0.000000 21.365999 14.952000 19.136000 # H HOH
333 2 2 0.000000 20.535000 16.215000 19.487000 # H HOH
334 1 4 0.000000 18.313999 24.275999 10.155000 # O HOH
335 2 2 0.000000 17.851999 24.969000 9.697000 # H HOH
336 2 2 0.000000 18.445000 24.530001 11.061000 # H HOH
337 1 4 0.000000 2.159000 8.302000 23.539000 # O HOH
338 2 2 0.000000 2.530000 9.015000 24.046000 # H HOH
339 2 2 0.000000 1.614000 8.657000 22.846001 # H HOH
340 1 4 0.000000 1.702000 10.618000 8.973000 # O HOH
341 2 2 0.000000 0.913000 10.095000 8.889000 # H HOH
342 2 2 0.000000 1.852000 11.095000 8.165000 # H HOH
343 1 4 0.000000 0.629000 17.261000 6.419000 # O HOH
344 2 2 0.000000 0.361000 16.365000 6.588000 # H HOH
345 2 2 0.000000 0.000000 17.857000 6.809000 # H HOH
346 1 4 0.000000 4.115000 20.044001 -0.009000 # O HOH
347 2 2 0.000000 4.146000 20.968000 0.213000 # H HOH
348 2 2 0.000000 4.714000 19.563999 0.551000 # H HOH
349 1 4 0.000000 19.513000 6.858000 9.188000 # O HOH
350 2 2 0.000000 19.313000 6.013000 8.803000 # H HOH
351 2 2 0.000000 18.739000 7.408000 9.164000 # H HOH
352 1 4 0.000000 19.172001 9.980000 27.608000 # O HOH
353 2 2 0.000000 19.184000 10.930000 27.587999 # H HOH
354 2 2 0.000000 19.434999 9.643000 26.760000 # H HOH
355 1 4 0.000000 3.539000 23.094999 24.000000 # O HOH
356 2 2 0.000000 3.994000 23.360001 23.209000 # H HOH
357 2 2 0.000000 3.582000 22.150000 24.087999 # H HOH
358 1 4 0.000000 20.399000 17.756001 29.584999 # O HOH
359 2 2 0.000000 20.882999 17.132999 29.054001 # H HOH
360 2 2 0.000000 19.667000 17.313999 30.000000 # H HOH
361 1 4 0.000000 4.340000 16.146999 8.162000 # O HOH
362 2 2 0.000000 4.321000 15.638000 8.965000 # H HOH
363 2 2 0.000000 5.061000 16.764000 8.196000 # H HOH
364 1 4 0.000000 24.870001 29.231001 29.410999 # O HOH
365 2 2 0.000000 25.375000 28.666000 29.986000 # H HOH
366 2 2 0.000000 24.518000 28.718000 28.693001 # H HOH
367 1 4 0.000000 25.961000 5.275000 0.439000 # O HOH
368 2 2 0.000000 26.528999 5.817000 0.975000 # H HOH
369 2 2 0.000000 25.209999 5.000000 0.953000 # H HOH
370 1 4 0.000000 16.785999 4.043000 18.813999 # O HOH
371 2 2 0.000000 17.593000 4.544000 18.770000 # H HOH
372 2 2 0.000000 16.400999 3.989000 17.948000 # H HOH
373 1 4 0.000000 24.863001 7.308000 27.417999 # O HOH
374 2 2 0.000000 25.157000 8.211000 27.471001 # H HOH
375 2 2 0.000000 24.830000 6.935000 28.291000 # H HOH
376 1 4 0.000000 27.413000 12.049000 21.812000 # O HOH
377 2 2 0.000000 27.215000 11.407000 21.139999 # H HOH
378 2 2 0.000000 26.690001 12.660000 21.889000 # H HOH
379 1 4 0.000000 18.992001 4.982000 20.410000 # O HOH
380 2 2 0.000000 19.267000 5.552000 21.118999 # H HOH
381 2 2 0.000000 19.736000 4.793000 19.849001 # H HOH
382 1 4 0.000000 22.430000 21.419001 8.976000 # O HOH
383 2 2 0.000000 23.013000 20.985001 8.363000 # H HOH
384 2 2 0.000000 21.565001 21.030001 8.918000 # H HOH
385 1 4 0.000000 2.395000 0.699000 8.073000 # O HOH
386 2 2 0.000000 2.614000 0.003000 8.682000 # H HOH
387 2 2 0.000000 3.194000 1.109000 7.762000 # H HOH
388 1 4 0.000000 12.210000 22.007999 20.687000 # O HOH
389 2 2 0.000000 11.567000 22.686001 20.507000 # H HOH
390 2 2 0.000000 11.797000 21.301001 21.167999 # H HOH
391 1 4 0.000000 25.514000 21.917000 7.627000 # O HOH
392 2 2 0.000000 26.122999 22.409000 8.166000 # H HOH
393 2 2 0.000000 25.587999 22.202999 6.724000 # H HOH
394 1 4 0.000000 17.281000 24.610001 27.003000 # O HOH
395 2 2 0.000000 16.792999 24.438999 26.205000 # H HOH
396 2 2 0.000000 18.186001 24.349001 26.882000 # H HOH
397 1 4 0.000000 11.092000 10.286000 26.832001 # O HOH
398 2 2 0.000000 10.308000 10.820000 26.768000 # H HOH
399 2 2 0.000000 10.968000 9.621000 27.497999 # H HOH
400 1 4 0.000000 7.906000 19.892000 12.234000 # O HOH
401 2 2 0.000000 7.495000 20.749001 12.231000 # H HOH
402 2 2 0.000000 8.536000 19.840000 11.525000 # H HOH
403 1 4 0.000000 23.783001 25.291000 21.247000 # O HOH
404 2 2 0.000000 24.728001 25.190001 21.211000 # H HOH
405 2 2 0.000000 23.539000 25.683001 22.077999 # H HOH
406 1 4 0.000000 4.521000 4.969000 20.497000 # O HOH
407 2 2 0.000000 3.874000 5.023000 19.802999 # H HOH
408 2 2 0.000000 4.301000 5.588000 21.183001 # H HOH
409 1 4 0.000000 8.390000 26.334000 3.787000 # O HOH
410 2 2 0.000000 8.118000 27.195999 4.082000 # H HOH
411 2 2 0.000000 7.839000 26.059999 3.063000 # H HOH
412 1 4 0.000000 18.570999 0.770000 0.810000 # O HOH
413 2 2 0.000000 18.226999 1.319000 1.506000 # H HOH
414 2 2 0.000000 19.216999 1.259000 0.313000 # H HOH
415 1 4 0.000000 21.740999 5.148000 19.017000 # O HOH
416 2 2 0.000000 22.329000 5.674000 18.487000 # H HOH
417 2 2 0.000000 22.247999 4.616000 19.618000 # H HOH
418 1 4 0.000000 0.001000 26.096001 22.150999 # O HOH
419 2 2 0.000000 0.373000 25.278000 21.843000 # H HOH
420 2 2 0.000000 0.549000 26.452000 22.841000 # H HOH
421 1 4 0.000000 25.104000 9.647000 29.975000 # O HOH
422 2 2 0.000000 25.813999 9.015000 30.000000 # H HOH
423 2 2 0.000000 24.708000 9.644000 29.112000 # H HOH
424 1 4 0.000000 2.010000 3.987000 15.941000 # O HOH
425 2 2 0.000000 1.099000 4.256000 15.944000 # H HOH
426 2 2 0.000000 2.557000 4.725000 15.699000 # H HOH
427 1 4 0.000000 2.293000 12.714000 12.316000 # O HOH
428 2 2 0.000000 2.549000 12.848000 11.411000 # H HOH
429 2 2 0.000000 1.390000 12.983000 12.433000 # H HOH
430 1 4 0.000000 20.688000 12.782000 9.226000 # O HOH
431 2 2 0.000000 21.391001 13.090000 8.666000 # H HOH
432 2 2 0.000000 20.721001 11.834000 9.282000 # H HOH
433 1 4 0.000000 13.613000 5.819000 24.416000 # O HOH
434 2 2 0.000000 14.322000 5.313000 24.037001 # H HOH
435 2 2 0.000000 13.243000 5.344000 25.150999 # H HOH
436 1 4 0.000000 26.069000 14.087000 27.893000 # O HOH
437 2 2 0.000000 26.152000 14.819000 28.493999 # H HOH
438 2 2 0.000000 26.930000 13.731000 27.709000 # H HOH
439 1 4 0.000000 22.403000 4.156000 15.239000 # O HOH
440 2 2 0.000000 21.847000 3.386000 15.225000 # H HOH
441 2 2 0.000000 21.951000 4.865000 15.680000 # H HOH
442 1 4 0.000000 18.052000 12.017000 17.749001 # O HOH
443 2 2 0.000000 17.261000 12.260000 18.216999 # H HOH
444 2 2 0.000000 17.900999 11.210000 17.271000 # H HOH
445 1 4 0.000000 20.736000 9.635000 10.044000 # O HOH
446 2 2 0.000000 20.403000 9.698000 10.932000 # H HOH
447 2 2 0.000000 20.662001 8.737000 9.742000 # H HOH
448 1 4 0.000000 2.605000 19.176001 9.325000 # O HOH
449 2 2 0.000000 2.231000 18.313000 9.185000 # H HOH
450 2 2 0.000000 2.567000 19.672001 8.515000 # H HOH
451 1 4 0.000000 14.177000 21.184999 25.775000 # O HOH
452 2 2 0.000000 14.614000 20.652000 26.429001 # H HOH
453 2 2 0.000000 14.818000 21.521000 25.160000 # H HOH
454 1 4 0.000000 10.953000 8.770000 10.513000 # O HOH
455 2 2 0.000000 11.030000 9.241000 11.335000 # H HOH
456 2 2 0.000000 10.529000 9.325000 9.869000 # H HOH
457 1 4 0.000000 26.037001 14.373000 2.055000 # O HOH
458 2 2 0.000000 26.980000 14.488000 2.011000 # H HOH
459 2 2 0.000000 25.798000 14.050000 2.916000 # H HOH
460 1 4 0.000000 16.525000 25.409000 19.101000 # O HOH
461 2 2 0.000000 17.278999 25.879999 18.764000 # H HOH
462 2 2 0.000000 16.815001 24.752001 19.724001 # H HOH
463 1 4 0.000000 29.333000 21.302999 29.594999 # O HOH
464 2 2 0.000000 29.620001 22.114000 30.000000 # H HOH
465 2 2 0.000000 28.471001 21.427000 29.216000 # H HOH
466 1 4 0.000000 5.016000 15.706000 19.077000 # O HOH
467 2 2 0.000000 5.246000 14.918000 19.556999 # H HOH
468 2 2 0.000000 5.630000 15.831000 18.363001 # H HOH
469 1 4 0.000000 14.227000 14.516000 6.486000 # O HOH
470 2 2 0.000000 13.518000 15.077000 6.193000 # H HOH
471 2 2 0.000000 14.562000 14.837000 7.315000 # H HOH
472 1 4 0.000000 13.097000 27.763000 19.049999 # O HOH
473 2 2 0.000000 13.160000 28.693001 19.235001 # H HOH
474 2 2 0.000000 12.984000 27.632999 18.115999 # H HOH
475 1 4 0.000000 27.972000 15.562000 24.009001 # O HOH
476 2 2 0.000000 28.742001 15.623000 24.565001 # H HOH
477 2 2 0.000000 28.222000 15.212000 23.162001 # H HOH
478 1 4 0.000000 14.991000 11.870000 19.558001 # O HOH
479 2 2 0.000000 14.394000 11.480000 20.187000 # H HOH
480 2 2 0.000000 14.863000 12.811000 19.542999 # H HOH
481 1 4 0.000000 11.174000 4.871000 22.278000 # O HOH
482 2 2 0.000000 10.985000 5.553000 22.913000 # H HOH
483 2 2 0.000000 10.501000 4.869000 21.607000 # H HOH
484 1 4 0.000000 4.633000 1.078000 4.718000 # O HOH
485 2 2 0.000000 4.061000 0.703000 4.058000 # H HOH
486 2 2 0.000000 5.267000 1.648000 4.299000 # H HOH
487 1 4 0.000000 24.110001 7.978000 20.528999 # O HOH
488 2 2 0.000000 23.608999 8.614000 21.025000 # H HOH
489 2 2 0.000000 23.572001 7.627000 19.829000 # H HOH
490 1 4 0.000000 18.252001 28.027000 19.688999 # O HOH
491 2 2 0.000000 17.945000 28.108000 18.792999 # H HOH
492 2 2 0.000000 17.664000 28.497000 20.268999 # H HOH
493 1 4 0.000000 8.687000 2.777000 30.000000 # O HOH
494 2 2 0.000000 7.974000 3.027000 29.422001 # H HOH
495 2 2 0.000000 9.403000 2.425000 29.483999 # H HOH
496 1 4 0.000000 12.182000 25.966999 25.379999 # O HOH
497 2 2 0.000000 11.272000 25.736000 25.528999 # H HOH
498 2 2 0.000000 12.684000 25.180000 25.205000 # H HOH
499 1 4 0.000000 4.288000 21.827999 28.368000 # O HOH
500 2 2 0.000000 3.936000 21.007999 28.042000 # H HOH
501 2 2 0.000000 4.971000 21.648001 29.004000 # H HOH
502 1 4 0.000000 28.855000 17.521999 10.954000 # O HOH
503 2 2 0.000000 29.600000 17.099001 11.366000 # H HOH
504 2 2 0.000000 29.163000 18.117001 10.280000 # H HOH
505 1 4 0.000000 18.459000 6.862000 19.377001 # O HOH
506 2 2 0.000000 18.570999 7.731000 19.747000 # H HOH
507 2 2 0.000000 17.801001 6.892000 18.693001 # H HOH
508 1 4 0.000000 16.481001 16.245001 22.622999 # O HOH
509 2 2 0.000000 15.818000 16.795000 23.025000 # H HOH
510 2 2 0.000000 16.153999 15.908000 21.798000 # H HOH
511 1 4 0.000000 29.100000 19.422001 8.254000 # O HOH
512 2 2 0.000000 30.000000 19.618999 8.018000 # H HOH
513 2 2 0.000000 28.934999 18.496000 8.125000 # H HOH
514 1 4 0.000000 9.785000 1.767000 0.000000 # O HOH
515 2 2 0.000000 10.719000 1.947000 0.007000 # H HOH
516 2 2 0.000000 9.644000 0.831000 0.077000 # H HOH
517 1 4 0.000000 6.530000 10.842000 16.794001 # O HOH
518 2 2 0.000000 5.866000 10.290000 16.396000 # H HOH
519 2 2 0.000000 7.072000 10.318000 17.372000 # H HOH
520 1 4 0.000000 15.121000 21.691999 13.910000 # O HOH
521 2 2 0.000000 15.015000 21.702999 12.965000 # H HOH
522 2 2 0.000000 14.434000 22.211000 14.311000 # H HOH
523 1 4 0.000000 8.788000 2.834000 16.059000 # O HOH
524 2 2 0.000000 8.410000 2.655000 16.913000 # H HOH
525 2 2 0.000000 8.100000 3.087000 15.455000 # H HOH
526 1 4 0.000000 29.684000 27.420000 15.831000 # O HOH
527 2 2 0.000000 29.982000 27.201000 16.707001 # H HOH
528 2 2 0.000000 28.841999 27.856001 15.883000 # H HOH
529 1 4 0.000000 15.719000 22.079000 18.083000 # O HOH
530 2 2 0.000000 15.074000 22.680000 18.440001 # H HOH
531 2 2 0.000000 15.327000 21.575001 17.379999 # H HOH